
:LABEL1: Calculations in /home/togo/research/wien2k/NaCl/no-sym/NaCl-001
:LABEL2: on hahn at Fri May 27 18:02:41 JST 2011
:LABEL3: using WIEN2k_11.1 (Release 5/4/2011) in /usr/local/calc/WIEN2k_11


            ---------
:ITE030: 30. ITERATION
            ---------

:NATO :   64 INDEPENDENT AND   64 TOTAL ATOMS IN UNITCELL
       SUBSTANCE: Title                                                       

       LATTICE                      = P   
:POT  : POTENTIAL OPTION   13
:LAT  : LATTICE CONSTANTS= 21.50622 21.50622 21.50622    1.571    1.571    1.571
:VOL  : UNIT CELL VOLUME =    9947.00586
       MODE OF CALCULATION IS       = RELA
       NON-SPINPOLARIZED CALCULATION
:IFFT  : FFT-parameters:  180  180  180 Factor: 2.00
       ATOMNUMBER=  1 Na         VCOUL-ZERO =  0.16082E+00
:EFG001:                        EFG         =    -0.00053   *10**21  V / m**2
                               V20  TOT/SRF=     0.00034    -0.00001
                               V22  TOT/SRF=    -0.00033     0.00002
                               V22M TOT/SRF=    -0.00003     0.00000
                               V21  TOT/SRF=     0.00000     0.00000
                               V21M TOT/SRF=     0.00000     0.00000

             -0.00053   -0.00003    0.00000       -0.00053    0.00000    0.00000
             -0.00003    0.00013    0.00000        0.00000    0.00013    0.00000
              0.00000    0.00000    0.00040        0.00000    0.00000    0.00040

         MAIN DIRECTIONS OF THE EFG   1.0000 -0.0463  0.0000
                                      0.0463  1.0000  0.0000
                                      0.0000  0.0000  1.0000
:ANG001:  ANGLE WITH OLD X-AXIS =         2.6

:ETA001:                         ASYMM. ETA =     0.49537


       ATOMNUMBER=  2 Na         VCOUL-ZERO =  0.16082E+00
:EFG002:                        EFG         =     0.00018   *10**21  V / m**2
                               V20  TOT/SRF=     0.00015     0.00000
                               V22  TOT/SRF=     0.00000     0.00000
                               V22M TOT/SRF=     0.00000     0.00000
                               V21  TOT/SRF=     0.00000     0.00000
                               V21M TOT/SRF=     0.00000     0.00000

             -0.00009    0.00000    0.00000       -0.00009    0.00000    0.00000
              0.00000   -0.00009    0.00000        0.00000   -0.00009    0.00000
              0.00000    0.00000    0.00018        0.00000    0.00000    0.00018

         MAIN DIRECTIONS OF THE EFG   1.0000  0.9639  0.0000
                                     -0.9639  1.0000  0.0000
                                      0.0000  0.0000  1.0000
:ANG002:  ANGLE WITH OLD X-AXIS =        43.9

:ETA002:                         ASYMM. ETA =     0.01221


       ATOMNUMBER=  3 Na         VCOUL-ZERO =  0.16082E+00
:EFG003:                        EFG         =     0.00018   *10**21  V / m**2
                               V20  TOT/SRF=     0.00016     0.00000
                               V22  TOT/SRF=     0.00001     0.00000
                               V22M TOT/SRF=     0.00000     0.00000
                               V21  TOT/SRF=     0.00000     0.00000
                               V21M TOT/SRF=     0.00000     0.00000

             -0.00009    0.00000    0.00000       -0.00009    0.00000    0.00000
              0.00000   -0.00010    0.00000        0.00000   -0.00010    0.00000
              0.00000    0.00000    0.00018        0.00000    0.00000    0.00018

         MAIN DIRECTIONS OF THE EFG   1.0000  0.0186  0.0000
                                     -0.0186  1.0000  0.0000
                                      0.0000  0.0000  1.0000
:ANG003:  ANGLE WITH OLD X-AXIS =         1.1

:ETA003:                         ASYMM. ETA =     0.05918


       ATOMNUMBER=  4 Na         VCOUL-ZERO =  0.16082E+00
:EFG004:                        EFG         =     0.00018   *10**21  V / m**2
                               V20  TOT/SRF=     0.00015     0.00000
                               V22  TOT/SRF=     0.00000     0.00000
                               V22M TOT/SRF=     0.00000     0.00000
                               V21  TOT/SRF=     0.00000     0.00000
                               V21M TOT/SRF=     0.00000     0.00000

             -0.00009    0.00000    0.00000       -0.00009    0.00000    0.00000
              0.00000   -0.00009    0.00000        0.00000   -0.00009    0.00000
              0.00000    0.00000    0.00018        0.00000    0.00000    0.00018

         MAIN DIRECTIONS OF THE EFG   1.0000 -0.0053  0.0000
                                      0.0053  1.0000  0.0000
                                      0.0000  0.0000  1.0000
:ANG004:  ANGLE WITH OLD X-AXIS =         0.3

:ETA004:                         ASYMM. ETA =     0.01797


       ATOMNUMBER=  5 Na         VCOUL-ZERO =  0.16082E+00
:EFG005:                        EFG         =     0.00017   *10**21  V / m**2
                               V20  TOT/SRF=     0.00015     0.00000
                               V22  TOT/SRF=     0.00000     0.00000
                               V22M TOT/SRF=     0.00000     0.00000
                               V21  TOT/SRF=     0.00000     0.00000
                               V21M TOT/SRF=     0.00000     0.00000

             -0.00009    0.00000    0.00000       -0.00009    0.00000    0.00000
              0.00000   -0.00009    0.00000        0.00000   -0.00009    0.00000
              0.00000    0.00000    0.00017        0.00000    0.00000    0.00017

         MAIN DIRECTIONS OF THE EFG   1.0000 -0.0451  0.0000
                                      0.0451  1.0000  0.0000
                                      0.0000  0.0000  1.0000
:ANG005:  ANGLE WITH OLD X-AXIS =         2.6

:ETA005:                         ASYMM. ETA =     0.00451


       ATOMNUMBER=  6 Na         VCOUL-ZERO =  0.16082E+00
:EFG006:                        EFG         =     0.00018   *10**21  V / m**2
                               V20  TOT/SRF=     0.00016     0.00000
                               V22  TOT/SRF=     0.00000     0.00000
                               V22M TOT/SRF=     0.00000     0.00000
                               V21  TOT/SRF=     0.00000     0.00000
                               V21M TOT/SRF=     0.00000     0.00000

             -0.00009    0.00000    0.00000       -0.00009    0.00000    0.00000
              0.00000   -0.00009    0.00000        0.00000    0.00018    0.00000
              0.00000    0.00000    0.00018        0.00000    0.00000   -0.00009

         MAIN DIRECTIONS OF THE EFG   1.0000  0.0000  0.0030
                                     -0.0030  0.0000  1.0000
                                      0.0000  1.0000  0.0000
:ANG006:  ANGLE WITH OLD X-AXIS =         0.2

:ETA006:                         ASYMM. ETA =     0.00988


       ATOMNUMBER=  7 Na         VCOUL-ZERO =  0.16082E+00
:EFG007:                        EFG         =     0.00018   *10**21  V / m**2
                               V20  TOT/SRF=     0.00015     0.00000
                               V22  TOT/SRF=     0.00000     0.00000
                               V22M TOT/SRF=     0.00000     0.00000
                               V21  TOT/SRF=     0.00000     0.00000
                               V21M TOT/SRF=     0.00000     0.00000

             -0.00009    0.00000    0.00000       -0.00009    0.00000    0.00000
              0.00000   -0.00009    0.00000        0.00000   -0.00009    0.00000
              0.00000    0.00000    0.00018        0.00000    0.00000    0.00018

         MAIN DIRECTIONS OF THE EFG   1.0000 -0.0312  0.0000
                                      0.0312  1.0000  0.0000
                                      0.0000  0.0000  1.0000
:ANG007:  ANGLE WITH OLD X-AXIS =         1.8

:ETA007:                         ASYMM. ETA =     0.00853


       ATOMNUMBER=  8 Na         VCOUL-ZERO =  0.16082E+00
:EFG008:                        EFG         =     0.00018   *10**21  V / m**2
                               V20  TOT/SRF=     0.00015     0.00000
                               V22  TOT/SRF=     0.00000     0.00000
                               V22M TOT/SRF=     0.00000     0.00000
                               V21  TOT/SRF=     0.00000     0.00000
                               V21M TOT/SRF=     0.00000     0.00000

             -0.00009    0.00000    0.00000       -0.00009    0.00000    0.00000
              0.00000   -0.00009    0.00000        0.00000   -0.00009    0.00000
              0.00000    0.00000    0.00018        0.00000    0.00000    0.00018

         MAIN DIRECTIONS OF THE EFG   1.0000 -0.0008  0.0000
                                      0.0008  1.0000  0.0000
                                      0.0000  0.0000  1.0000
:ANG008:  ANGLE WITH OLD X-AXIS =         0.0

:ETA008:                         ASYMM. ETA =     0.00529


       ATOMNUMBER=  9 Na         VCOUL-ZERO =  0.16082E+00
:EFG009:                        EFG         =     0.00022   *10**21  V / m**2
                               V20  TOT/SRF=     0.00015     0.00000
                               V22  TOT/SRF=     0.00000     0.00000
                               V22M TOT/SRF=    -0.00011    -0.00003
                               V21  TOT/SRF=    -0.00011    -0.00003
                               V21M TOT/SRF=     0.00000     0.00000

             -0.00009   -0.00011   -0.00011       -0.00022    0.00000    0.00000
             -0.00011   -0.00009    0.00000        0.00000    0.00022    0.00000
             -0.00011    0.00000    0.00018        0.00000    0.00000    0.00000

         MAIN DIRECTIONS OF THE EFG   1.0000 -0.4246 -0.7498
                                      0.8861  0.1526  1.0000
                                      0.2894  1.0000 -0.4709
:ANG009:  ANGLE WITH OLD X-AXIS =        40.8

:ETA009:                         ASYMM. ETA =     0.95591


       ATOMNUMBER= 10 Na         VCOUL-ZERO =  0.16082E+00
:EFG010:                        EFG         =     0.00018   *10**21  V / m**2
                               V20  TOT/SRF=     0.00015     0.00000
                               V22  TOT/SRF=     0.00000     0.00000
                               V22M TOT/SRF=     0.00002     0.00001
                               V21  TOT/SRF=     0.00002     0.00001
                               V21M TOT/SRF=     0.00000     0.00000

             -0.00009    0.00002    0.00002       -0.00011    0.00000    0.00000
              0.00002   -0.00009    0.00000        0.00000   -0.00007    0.00000
              0.00002    0.00000    0.00018        0.00000    0.00000    0.00018

         MAIN DIRECTIONS OF THE EFG   1.0000  0.9278  0.0879
                                     -0.9350  1.0000  0.0079
                                     -0.0805 -0.0895  1.0000
:ANG010:  ANGLE WITH OLD X-AXIS =        43.0

:ETA010:                         ASYMM. ETA =     0.26043


       ATOMNUMBER= 11 Na         VCOUL-ZERO =  0.16082E+00
:EFG011:                        EFG         =     0.00022   *10**21  V / m**2
                               V20  TOT/SRF=     0.00015     0.00000
                               V22  TOT/SRF=     0.00000     0.00000
                               V22M TOT/SRF=     0.00011     0.00003
                               V21  TOT/SRF=    -0.00011    -0.00003
                               V21M TOT/SRF=     0.00000     0.00000

             -0.00009    0.00011   -0.00011       -0.00022    0.00000    0.00000
              0.00011   -0.00009    0.00000        0.00000    0.00022    0.00000
             -0.00011    0.00000    0.00018        0.00000    0.00000    0.00000

         MAIN DIRECTIONS OF THE EFG   1.0000 -0.4245  0.7502
                                     -0.8864 -0.1528  1.0000
                                      0.2891  1.0000  0.4712
:ANG011:  ANGLE WITH OLD X-AXIS =        40.8

:ETA011:                         ASYMM. ETA =     0.95741


       ATOMNUMBER= 12 Na         VCOUL-ZERO =  0.16082E+00
:EFG012:                        EFG         =     0.00018   *10**21  V / m**2
                               V20  TOT/SRF=     0.00015     0.00000
                               V22  TOT/SRF=     0.00000     0.00000
                               V22M TOT/SRF=    -0.00002    -0.00001
                               V21  TOT/SRF=     0.00002     0.00001
                               V21M TOT/SRF=     0.00000     0.00000

             -0.00009   -0.00002    0.00002       -0.00011    0.00000    0.00000
             -0.00002   -0.00009    0.00000        0.00000   -0.00007    0.00000
              0.00002    0.00000    0.00018        0.00000    0.00000    0.00018

         MAIN DIRECTIONS OF THE EFG   1.0000 -0.9279  0.0880
                                      0.9351  1.0000 -0.0080
                                     -0.0805  0.0896  1.0000
:ANG012:  ANGLE WITH OLD X-AXIS =        43.0

:ETA012:                         ASYMM. ETA =     0.26164


       ATOMNUMBER= 13 Na         VCOUL-ZERO =  0.16082E+00
:EFG013:                        EFG         =     0.00022   *10**21  V / m**2
                               V20  TOT/SRF=     0.00015     0.00000
                               V22  TOT/SRF=     0.00000     0.00000
                               V22M TOT/SRF=    -0.00011    -0.00003
                               V21  TOT/SRF=     0.00011     0.00003
                               V21M TOT/SRF=     0.00000     0.00000

             -0.00009   -0.00011    0.00011       -0.00022    0.00000    0.00000
             -0.00011   -0.00009    0.00000        0.00000    0.00022    0.00000
              0.00011    0.00000    0.00018        0.00000    0.00000    0.00000

         MAIN DIRECTIONS OF THE EFG   1.0000  0.4246 -0.7498
                                      0.8861 -0.1526  1.0000
                                     -0.2894  1.0000  0.4709
:ANG013:  ANGLE WITH OLD X-AXIS =        40.8

:ETA013:                         ASYMM. ETA =     0.95591


       ATOMNUMBER= 14 Na         VCOUL-ZERO =  0.16082E+00
:EFG014:                        EFG         =     0.00018   *10**21  V / m**2
                               V20  TOT/SRF=     0.00015     0.00000
                               V22  TOT/SRF=     0.00000     0.00000
                               V22M TOT/SRF=     0.00002     0.00001
                               V21  TOT/SRF=    -0.00002    -0.00001
                               V21M TOT/SRF=     0.00000     0.00000

             -0.00009    0.00002   -0.00002       -0.00011    0.00000    0.00000
              0.00002   -0.00009    0.00000        0.00000   -0.00007    0.00000
             -0.00002    0.00000    0.00018        0.00000    0.00000    0.00018

         MAIN DIRECTIONS OF THE EFG   1.0000  0.9278 -0.0879
                                     -0.9350  1.0000 -0.0079
                                      0.0805  0.0895  1.0000
:ANG014:  ANGLE WITH OLD X-AXIS =        43.0

:ETA014:                         ASYMM. ETA =     0.26043


       ATOMNUMBER= 15 Na         VCOUL-ZERO =  0.16082E+00
:EFG015:                        EFG         =     0.00022   *10**21  V / m**2
                               V20  TOT/SRF=     0.00015     0.00000
                               V22  TOT/SRF=     0.00000     0.00000
                               V22M TOT/SRF=     0.00011     0.00003
                               V21  TOT/SRF=     0.00011     0.00003
                               V21M TOT/SRF=     0.00000     0.00000

             -0.00009    0.00011    0.00011       -0.00022    0.00000    0.00000
              0.00011   -0.00009    0.00000        0.00000    0.00022    0.00000
              0.00011    0.00000    0.00018        0.00000    0.00000    0.00000

         MAIN DIRECTIONS OF THE EFG   1.0000  0.4245  0.7502
                                     -0.8864  0.1528  1.0000
                                     -0.2891  1.0000 -0.4712
:ANG015:  ANGLE WITH OLD X-AXIS =        40.8

:ETA015:                         ASYMM. ETA =     0.95741


       ATOMNUMBER= 16 Na         VCOUL-ZERO =  0.16082E+00
:EFG016:                        EFG         =     0.00018   *10**21  V / m**2
                               V20  TOT/SRF=     0.00015     0.00000
                               V22  TOT/SRF=     0.00000     0.00000
                               V22M TOT/SRF=    -0.00002    -0.00001
                               V21  TOT/SRF=    -0.00002    -0.00001
                               V21M TOT/SRF=     0.00000     0.00000

             -0.00009   -0.00002   -0.00002       -0.00011    0.00000    0.00000
             -0.00002   -0.00009    0.00000        0.00000   -0.00007    0.00000
             -0.00002    0.00000    0.00018        0.00000    0.00000    0.00018

         MAIN DIRECTIONS OF THE EFG   1.0000 -0.9279 -0.0880
                                      0.9351  1.0000  0.0080
                                      0.0805 -0.0896  1.0000
:ANG016:  ANGLE WITH OLD X-AXIS =        43.0

:ETA016:                         ASYMM. ETA =     0.26164


       ATOMNUMBER= 17 Na         VCOUL-ZERO =  0.16067E+00
:EFG017:                        EFG         =     0.00173   *10**21  V / m**2
                               V20  TOT/SRF=     0.00147     0.00016
                               V22  TOT/SRF=    -0.00025    -0.00001
                               V22M TOT/SRF=     0.00000     0.00000
                               V21  TOT/SRF=     0.00029     0.00007
                               V21M TOT/SRF=     0.00000     0.00000

             -0.00110    0.00000    0.00029       -0.00113    0.00000    0.00000
              0.00000   -0.00060    0.00000        0.00000    0.00173    0.00000
              0.00029    0.00000    0.00170        0.00000    0.00000   -0.00060

         MAIN DIRECTIONS OF THE EFG   1.0000  0.1034  0.0001
                                     -0.0001  0.0000  1.0000
                                     -0.1034  1.0000  0.0000
:ANG017:  ANGLE WITH OLD X-AXIS =         5.9

:ETA017:                         ASYMM. ETA =     0.30617


       ATOMNUMBER= 18 Na         VCOUL-ZERO =  0.16098E+00
:EFG018:                        EFG         =    -0.00136   *10**21  V / m**2
                               V20  TOT/SRF=    -0.00115    -0.00016
                               V22  TOT/SRF=     0.00025     0.00001
                               V22M TOT/SRF=     0.00000     0.00000
                               V21  TOT/SRF=     0.00029     0.00007
                               V21M TOT/SRF=     0.00000     0.00000

              0.00091    0.00000    0.00029        0.00095    0.00000    0.00000
              0.00000    0.00042    0.00000        0.00000   -0.00136    0.00000
              0.00029    0.00000   -0.00133        0.00000    0.00000    0.00042

         MAIN DIRECTIONS OF THE EFG   1.0000 -0.1270 -0.0001
                                      0.0001  0.0000  1.0000
                                      0.1270  1.0000  0.0000
:ANG018:  ANGLE WITH OLD X-AXIS =         7.2

:ETA018:                         ASYMM. ETA =     0.38998


       ATOMNUMBER= 19 Na         VCOUL-ZERO =  0.16079E+00
:EFG019:                        EFG         =    -0.00037   *10**21  V / m**2
                               V20  TOT/SRF=     0.00010    -0.00001
                               V22  TOT/SRF=    -0.00031    -0.00003
                               V22M TOT/SRF=     0.00000     0.00000
                               V21  TOT/SRF=     0.00000     0.00000
                               V21M TOT/SRF=     0.00000     0.00000

             -0.00037    0.00000    0.00000       -0.00037    0.00000    0.00000
              0.00000    0.00026    0.00000        0.00000    0.00012    0.00000
              0.00000    0.00000    0.00012        0.00000    0.00000    0.00026

         MAIN DIRECTIONS OF THE EFG   1.0000 -0.0007  0.0000
                                      0.0000  0.0000  1.0000
                                      0.0007  1.0000  0.0000
:ANG019:  ANGLE WITH OLD X-AXIS =         0.0

:ETA019:                         ASYMM. ETA =     0.36542


       ATOMNUMBER= 20 Na         VCOUL-ZERO =  0.16086E+00
:EFG020:                        EFG         =    -0.00043   *10**21  V / m**2
                               V20  TOT/SRF=     0.00021     0.00000
                               V22  TOT/SRF=     0.00031     0.00003
                               V22M TOT/SRF=     0.00000     0.00000
                               V21  TOT/SRF=     0.00000     0.00000
                               V21M TOT/SRF=     0.00000     0.00000

              0.00019    0.00000    0.00000        0.00019    0.00000    0.00000
              0.00000   -0.00043    0.00000        0.00000    0.00024    0.00000
              0.00000    0.00000    0.00024        0.00000    0.00000   -0.00043

         MAIN DIRECTIONS OF THE EFG   1.0000 -0.0056  0.0000
                                      0.0000  0.0000  1.0000
                                      0.0056  1.0000  0.0000
:ANG020:  ANGLE WITH OLD X-AXIS =         0.3

:ETA020:                         ASYMM. ETA =     0.10057


       ATOMNUMBER= 21 Na         VCOUL-ZERO =  0.16067E+00
:EFG021:                        EFG         =     0.00173   *10**21  V / m**2
                               V20  TOT/SRF=     0.00147     0.00016
                               V22  TOT/SRF=    -0.00025    -0.00001
                               V22M TOT/SRF=     0.00000     0.00000
                               V21  TOT/SRF=    -0.00029    -0.00007
                               V21M TOT/SRF=     0.00000     0.00000

             -0.00110    0.00000   -0.00029       -0.00113    0.00000    0.00000
              0.00000   -0.00060    0.00000        0.00000    0.00173    0.00000
             -0.00029    0.00000    0.00170        0.00000    0.00000   -0.00060

         MAIN DIRECTIONS OF THE EFG   1.0000 -0.1034  0.0001
                                     -0.0001  0.0000  1.0000
                                      0.1034  1.0000  0.0000
:ANG021:  ANGLE WITH OLD X-AXIS =         5.9

:ETA021:                         ASYMM. ETA =     0.30617


       ATOMNUMBER= 22 Na         VCOUL-ZERO =  0.16098E+00
:EFG022:                        EFG         =    -0.00136   *10**21  V / m**2
                               V20  TOT/SRF=    -0.00115    -0.00016
                               V22  TOT/SRF=     0.00025     0.00001
                               V22M TOT/SRF=     0.00000     0.00000
                               V21  TOT/SRF=    -0.00029    -0.00007
                               V21M TOT/SRF=     0.00000     0.00000

              0.00091    0.00000   -0.00029        0.00095    0.00000    0.00000
              0.00000    0.00042    0.00000        0.00000   -0.00136    0.00000
             -0.00029    0.00000   -0.00133        0.00000    0.00000    0.00042

         MAIN DIRECTIONS OF THE EFG   1.0000  0.1270 -0.0001
                                      0.0001  0.0000  1.0000
                                     -0.1270  1.0000  0.0000
:ANG022:  ANGLE WITH OLD X-AXIS =         7.2

:ETA022:                         ASYMM. ETA =     0.38998


       ATOMNUMBER= 23 Na         VCOUL-ZERO =  0.16079E+00
:EFG023:                        EFG         =    -0.00037   *10**21  V / m**2
                               V20  TOT/SRF=     0.00010    -0.00001
                               V22  TOT/SRF=    -0.00031    -0.00003
                               V22M TOT/SRF=     0.00000     0.00000
                               V21  TOT/SRF=     0.00000     0.00000
                               V21M TOT/SRF=     0.00000     0.00000

             -0.00037    0.00000    0.00000       -0.00037    0.00000    0.00000
              0.00000    0.00026    0.00000        0.00000    0.00012    0.00000
              0.00000    0.00000    0.00012        0.00000    0.00000    0.00026

         MAIN DIRECTIONS OF THE EFG   1.0000  0.0007  0.0000
                                      0.0000  0.0000  1.0000
                                     -0.0007  1.0000  0.0000
:ANG023:  ANGLE WITH OLD X-AXIS =         0.0

:ETA023:                         ASYMM. ETA =     0.36542


       ATOMNUMBER= 24 Na         VCOUL-ZERO =  0.16086E+00
:EFG024:                        EFG         =    -0.00043   *10**21  V / m**2
                               V20  TOT/SRF=     0.00021     0.00000
                               V22  TOT/SRF=     0.00031     0.00003
                               V22M TOT/SRF=     0.00000     0.00000
                               V21  TOT/SRF=     0.00000     0.00000
                               V21M TOT/SRF=     0.00000     0.00000

              0.00019    0.00000    0.00000        0.00019    0.00000    0.00000
              0.00000   -0.00043    0.00000        0.00000    0.00024    0.00000
              0.00000    0.00000    0.00024        0.00000    0.00000   -0.00043

         MAIN DIRECTIONS OF THE EFG   1.0000  0.0056  0.0000
                                      0.0000  0.0000  1.0000
                                     -0.0056  1.0000  0.0000
:ANG024:  ANGLE WITH OLD X-AXIS =         0.3

:ETA024:                         ASYMM. ETA =     0.10057


       ATOMNUMBER= 25 Na         VCOUL-ZERO =  0.16067E+00
:EFG025:                        EFG         =     0.00146   *10**21  V / m**2
                               V20  TOT/SRF=    -0.00029    -0.00007
                               V22  TOT/SRF=    -0.00126    -0.00015
                               V22M TOT/SRF=     0.00029     0.00007
                               V21  TOT/SRF=     0.00000     0.00000
                               V21M TOT/SRF=     0.00000     0.00000

             -0.00110    0.00029    0.00000       -0.00113    0.00000    0.00000
              0.00029    0.00143    0.00000        0.00000    0.00146    0.00000
              0.00000    0.00000   -0.00033        0.00000    0.00000   -0.00033

         MAIN DIRECTIONS OF THE EFG   1.0000  0.1143  0.0000
                                     -0.1143  1.0000  0.0000
                                      0.0000  0.0000  1.0000
:ANG025:  ANGLE WITH OLD X-AXIS =         6.5

:ETA025:                         ASYMM. ETA =     0.54586


       ATOMNUMBER= 26 Na         VCOUL-ZERO =  0.16098E+00
:EFG026:                        EFG         =    -0.00163   *10**21  V / m**2
                               V20  TOT/SRF=     0.00059     0.00006
                               V22  TOT/SRF=     0.00125     0.00014
                               V22M TOT/SRF=     0.00029     0.00007
                               V21  TOT/SRF=     0.00000     0.00000
                               V21M TOT/SRF=     0.00000     0.00000

              0.00091    0.00029    0.00000        0.00094    0.00000    0.00000
              0.00029   -0.00159    0.00000        0.00000   -0.00163    0.00000
              0.00000    0.00000    0.00068        0.00000    0.00000    0.00068

         MAIN DIRECTIONS OF THE EFG   1.0000 -0.1140  0.0000
                                      0.1140  1.0000  0.0000
                                      0.0000  0.0000  1.0000
:ANG026:  ANGLE WITH OLD X-AXIS =         6.5

:ETA026:                         ASYMM. ETA =     0.16021


       ATOMNUMBER= 27 Na         VCOUL-ZERO =  0.16067E+00
:EFG027:                        EFG         =     0.00146   *10**21  V / m**2
                               V20  TOT/SRF=    -0.00029    -0.00007
                               V22  TOT/SRF=    -0.00126    -0.00015
                               V22M TOT/SRF=    -0.00029    -0.00007
                               V21  TOT/SRF=     0.00000     0.00000
                               V21M TOT/SRF=     0.00000     0.00000

             -0.00110   -0.00029    0.00000       -0.00113    0.00000    0.00000
             -0.00029    0.00143    0.00000        0.00000    0.00146    0.00000
              0.00000    0.00000   -0.00033        0.00000    0.00000   -0.00033

         MAIN DIRECTIONS OF THE EFG   1.0000 -0.1140  0.0000
                                      0.1140  1.0000  0.0000
                                      0.0000  0.0000  1.0000
:ANG027:  ANGLE WITH OLD X-AXIS =         6.5

:ETA027:                         ASYMM. ETA =     0.54640


       ATOMNUMBER= 28 Na         VCOUL-ZERO =  0.16098E+00
:EFG028:                        EFG         =    -0.00163   *10**21  V / m**2
                               V20  TOT/SRF=     0.00059     0.00006
                               V22  TOT/SRF=     0.00125     0.00014
                               V22M TOT/SRF=    -0.00029    -0.00007
                               V21  TOT/SRF=     0.00000     0.00000
                               V21M TOT/SRF=     0.00000     0.00000

              0.00091   -0.00029    0.00000        0.00094    0.00000    0.00000
             -0.00029   -0.00159    0.00000        0.00000   -0.00163    0.00000
              0.00000    0.00000    0.00068        0.00000    0.00000    0.00068

         MAIN DIRECTIONS OF THE EFG   1.0000  0.1138  0.0000
                                     -0.1138  1.0000  0.0000
                                      0.0000  0.0000  1.0000
:ANG028:  ANGLE WITH OLD X-AXIS =         6.5

:ETA028:                         ASYMM. ETA =     0.16053


       ATOMNUMBER= 29 Na         VCOUL-ZERO =  0.16079E+00
:EFG029:                        EFG         =     0.00052   *10**21  V / m**2
                               V20  TOT/SRF=     0.00045     0.00003
                               V22  TOT/SRF=    -0.00011    -0.00001
                               V22M TOT/SRF=     0.00000     0.00000
                               V21  TOT/SRF=     0.00000     0.00000
                               V21M TOT/SRF=     0.00000     0.00000

             -0.00037    0.00000    0.00000       -0.00037    0.00000    0.00000
              0.00000   -0.00015    0.00000        0.00000   -0.00015    0.00000
              0.00000    0.00000    0.00052        0.00000    0.00000    0.00052

         MAIN DIRECTIONS OF THE EFG   1.0000 -0.0013  0.0000
                                      0.0013  1.0000  0.0000
                                      0.0000  0.0000  1.0000
:ANG029:  ANGLE WITH OLD X-AXIS =         0.1

:ETA029:                         ASYMM. ETA =     0.43166


       ATOMNUMBER= 30 Na         VCOUL-ZERO =  0.16086E+00
:EFG030:                        EFG         =     0.00019   *10**21  V / m**2
                               V20  TOT/SRF=    -0.00014    -0.00004
                               V22  TOT/SRF=     0.00011     0.00001
                               V22M TOT/SRF=     0.00000     0.00000
                               V21  TOT/SRF=     0.00000     0.00000
                               V21M TOT/SRF=     0.00000     0.00000

              0.00019    0.00000    0.00000        0.00019    0.00000    0.00000
              0.00000   -0.00003    0.00000        0.00000   -0.00003    0.00000
              0.00000    0.00000   -0.00016        0.00000    0.00000   -0.00016

         MAIN DIRECTIONS OF THE EFG   1.0000  0.0010  0.0000
                                     -0.0010  1.0000  0.0000
                                      0.0000  0.0000  1.0000
:ANG030:  ANGLE WITH OLD X-AXIS =         0.1

:ETA030:                         ASYMM. ETA =     0.68673


       ATOMNUMBER= 31 Na         VCOUL-ZERO =  0.16079E+00
:EFG031:                        EFG         =     0.00052   *10**21  V / m**2
                               V20  TOT/SRF=     0.00045     0.00003
                               V22  TOT/SRF=    -0.00011    -0.00001
                               V22M TOT/SRF=     0.00000     0.00000
                               V21  TOT/SRF=     0.00000     0.00000
                               V21M TOT/SRF=     0.00000     0.00000

             -0.00037    0.00000    0.00000       -0.00037    0.00000    0.00000
              0.00000   -0.00015    0.00000        0.00000   -0.00015    0.00000
              0.00000    0.00000    0.00052        0.00000    0.00000    0.00052

         MAIN DIRECTIONS OF THE EFG   1.0000  0.0015  0.0000
                                     -0.0015  1.0000  0.0000
                                      0.0000  0.0000  1.0000
:ANG031:  ANGLE WITH OLD X-AXIS =         0.1

:ETA031:                         ASYMM. ETA =     0.43174


       ATOMNUMBER= 32 Na         VCOUL-ZERO =  0.16086E+00
:EFG032:                        EFG         =     0.00019   *10**21  V / m**2
                               V20  TOT/SRF=    -0.00014    -0.00004
                               V22  TOT/SRF=     0.00011     0.00001
                               V22M TOT/SRF=     0.00000     0.00000
                               V21  TOT/SRF=     0.00000     0.00000
                               V21M TOT/SRF=     0.00000     0.00000

              0.00019    0.00000    0.00000        0.00019    0.00000    0.00000
              0.00000   -0.00003    0.00000        0.00000   -0.00003    0.00000
              0.00000    0.00000   -0.00016        0.00000    0.00000   -0.00016

         MAIN DIRECTIONS OF THE EFG   1.0000 -0.0012  0.0000
                                      0.0012  1.0000  0.0000
                                      0.0000  0.0000  1.0000
:ANG032:  ANGLE WITH OLD X-AXIS =         0.1

:ETA032:                         ASYMM. ETA =     0.68630


       ATOMNUMBER= 33 Cl         VCOUL-ZERO =  0.24795E+00
:EFG033:                        EFG         =     0.00360   *10**21  V / m**2
                               V20  TOT/SRF=     0.00134     0.00001
                               V22  TOT/SRF=    -0.00134    -0.00002
                               V22M TOT/SRF=     0.00053     0.00001
                               V21  TOT/SRF=     0.00053     0.00001
                               V21M TOT/SRF=     0.00239     0.00004

             -0.00212    0.00053    0.00053       -0.00222    0.00000    0.00000
              0.00053    0.00057    0.00239        0.00000    0.00360    0.00000
              0.00053    0.00239    0.00155        0.00000    0.00000   -0.00138

         MAIN DIRECTIONS OF THE EFG   1.0000  0.1680  0.1149
                                     -0.1516  0.8190  1.0000
                                     -0.0438  1.0000 -0.8383
:ANG033:  ANGLE WITH OLD X-AXIS =        11.5

:ETA033:                         ASYMM. ETA =     0.23509


       ATOMNUMBER= 34 Cl         VCOUL-ZERO =  0.24810E+00
:EFG034:                        EFG         =    -0.00324   *10**21  V / m**2
                               V20  TOT/SRF=    -0.00018    -0.00001
                               V22  TOT/SRF=     0.00130     0.00002
                               V22M TOT/SRF=     0.00053     0.00001
                               V21  TOT/SRF=     0.00053     0.00001
                               V21M TOT/SRF=    -0.00237    -0.00004

              0.00140    0.00053    0.00053        0.00150    0.00000    0.00000
              0.00053   -0.00119   -0.00237        0.00000   -0.00324    0.00000
              0.00053   -0.00237   -0.00021        0.00000    0.00000    0.00175

         MAIN DIRECTIONS OF THE EFG   1.0000 -0.2066  0.4106
                                      0.3391  1.0000 -0.7336
                                     -0.1619  0.8184  1.0000
:ANG034:  ANGLE WITH OLD X-AXIS =        24.7

:ETA034:                         ASYMM. ETA =     0.07676


       ATOMNUMBER= 35 Cl         VCOUL-ZERO =  0.24795E+00
:EFG035:                        EFG         =     0.00360   *10**21  V / m**2
                               V20  TOT/SRF=     0.00134     0.00001
                               V22  TOT/SRF=    -0.00134    -0.00002
                               V22M TOT/SRF=    -0.00053    -0.00001
                               V21  TOT/SRF=     0.00053     0.00001
                               V21M TOT/SRF=    -0.00239    -0.00004

             -0.00212   -0.00053    0.00053       -0.00222    0.00000    0.00000
             -0.00053    0.00057   -0.00239        0.00000    0.00360    0.00000
              0.00053   -0.00239    0.00155        0.00000    0.00000   -0.00138

         MAIN DIRECTIONS OF THE EFG   1.0000  0.1679 -0.1150
                                      0.1517 -0.8190  1.0000
                                     -0.0437  1.0000  0.8383
:ANG035:  ANGLE WITH OLD X-AXIS =        11.5

:ETA035:                         ASYMM. ETA =     0.23516


       ATOMNUMBER= 36 Cl         VCOUL-ZERO =  0.24810E+00
:EFG036:                        EFG         =    -0.00324   *10**21  V / m**2
                               V20  TOT/SRF=    -0.00018    -0.00001
                               V22  TOT/SRF=     0.00130     0.00002
                               V22M TOT/SRF=    -0.00053    -0.00001
                               V21  TOT/SRF=     0.00053     0.00001
                               V21M TOT/SRF=     0.00237     0.00004

              0.00140   -0.00053    0.00053        0.00150    0.00000    0.00000
             -0.00053   -0.00119    0.00237        0.00000   -0.00324    0.00000
              0.00053    0.00237   -0.00021        0.00000    0.00000    0.00175

         MAIN DIRECTIONS OF THE EFG   1.0000  0.2066  0.4092
                                     -0.3383  1.0000  0.7340
                                     -0.1609 -0.8185  1.0000
:ANG036:  ANGLE WITH OLD X-AXIS =        24.6

:ETA036:                         ASYMM. ETA =     0.07675


       ATOMNUMBER= 37 Cl         VCOUL-ZERO =  0.24795E+00
:EFG037:                        EFG         =     0.00360   *10**21  V / m**2
                               V20  TOT/SRF=     0.00134     0.00001
                               V22  TOT/SRF=    -0.00134    -0.00002
                               V22M TOT/SRF=     0.00053     0.00001
                               V21  TOT/SRF=    -0.00053    -0.00001
                               V21M TOT/SRF=    -0.00239    -0.00004

             -0.00212    0.00053   -0.00053       -0.00222    0.00000    0.00000
              0.00053    0.00057   -0.00239        0.00000    0.00360    0.00000
             -0.00053   -0.00239    0.00155        0.00000    0.00000   -0.00138

         MAIN DIRECTIONS OF THE EFG   1.0000 -0.1680  0.1149
                                     -0.1516 -0.8190  1.0000
                                      0.0438  1.0000  0.8383
:ANG037:  ANGLE WITH OLD X-AXIS =        11.5

:ETA037:                         ASYMM. ETA =     0.23509


       ATOMNUMBER= 38 Cl         VCOUL-ZERO =  0.24810E+00
:EFG038:                        EFG         =    -0.00324   *10**21  V / m**2
                               V20  TOT/SRF=    -0.00018    -0.00001
                               V22  TOT/SRF=     0.00130     0.00002
                               V22M TOT/SRF=     0.00053     0.00001
                               V21  TOT/SRF=    -0.00053    -0.00001
                               V21M TOT/SRF=     0.00237     0.00004

              0.00140    0.00053   -0.00053        0.00150    0.00000    0.00000
              0.00053   -0.00119    0.00237        0.00000   -0.00324    0.00000
             -0.00053    0.00237   -0.00021        0.00000    0.00000    0.00175

         MAIN DIRECTIONS OF THE EFG   1.0000 -0.2066 -0.4106
                                      0.3391  1.0000  0.7336
                                      0.1619 -0.8184  1.0000
:ANG038:  ANGLE WITH OLD X-AXIS =        24.7

:ETA038:                         ASYMM. ETA =     0.07676


       ATOMNUMBER= 39 Cl         VCOUL-ZERO =  0.24795E+00
:EFG039:                        EFG         =     0.00360   *10**21  V / m**2
                               V20  TOT/SRF=     0.00134     0.00001
                               V22  TOT/SRF=    -0.00134    -0.00002
                               V22M TOT/SRF=    -0.00053    -0.00001
                               V21  TOT/SRF=    -0.00053    -0.00001
                               V21M TOT/SRF=     0.00239     0.00004

             -0.00212   -0.00053   -0.00053       -0.00222    0.00000    0.00000
             -0.00053    0.00057    0.00239        0.00000    0.00360    0.00000
             -0.00053    0.00239    0.00155        0.00000    0.00000   -0.00138

         MAIN DIRECTIONS OF THE EFG   1.0000 -0.1679 -0.1150
                                      0.1517  0.8190  1.0000
                                      0.0437  1.0000 -0.8383
:ANG039:  ANGLE WITH OLD X-AXIS =        11.5

:ETA039:                         ASYMM. ETA =     0.23516


       ATOMNUMBER= 40 Cl         VCOUL-ZERO =  0.24810E+00
:EFG040:                        EFG         =    -0.00324   *10**21  V / m**2
                               V20  TOT/SRF=    -0.00018    -0.00001
                               V22  TOT/SRF=     0.00130     0.00002
                               V22M TOT/SRF=    -0.00053    -0.00001
                               V21  TOT/SRF=    -0.00053    -0.00001
                               V21M TOT/SRF=    -0.00237    -0.00004

              0.00140   -0.00053   -0.00053        0.00150    0.00000    0.00000
             -0.00053   -0.00119   -0.00237        0.00000   -0.00324    0.00000
             -0.00053   -0.00237   -0.00021        0.00000    0.00000    0.00175

         MAIN DIRECTIONS OF THE EFG   1.0000  0.2066 -0.4092
                                     -0.3383  1.0000 -0.7340
                                      0.1609  0.8185  1.0000
:ANG040:  ANGLE WITH OLD X-AXIS =        24.6

:ETA040:                         ASYMM. ETA =     0.07675


       ATOMNUMBER= 41 Cl         VCOUL-ZERO =  0.24722E+00
:EFG041:                        EFG         =    -0.00288   *10**21  V / m**2
                               V20  TOT/SRF=     0.00167    -0.00051
                               V22  TOT/SRF=    -0.00191     0.00088
                               V22M TOT/SRF=     0.00000     0.00000
                               V21  TOT/SRF=     0.00000     0.00000
                               V21M TOT/SRF=     0.00000     0.00000

             -0.00288    0.00000    0.00000       -0.00288    0.00000    0.00000
              0.00000    0.00094    0.00000        0.00000    0.00193    0.00000
              0.00000    0.00000    0.00193        0.00000    0.00000    0.00094

         MAIN DIRECTIONS OF THE EFG   1.0000  0.0000 -0.0001
                                      0.0001  0.0000  1.0000
                                      0.0000  1.0000  0.0000
:ANG041:  ANGLE WITH OLD X-AXIS =         0.0

:ETA041:                         ASYMM. ETA =     0.34278


       ATOMNUMBER= 42 Cl         VCOUL-ZERO =  0.24883E+00
:EFG042:                        EFG         =     0.00124   *10**21  V / m**2
                               V20  TOT/SRF=    -0.00011     0.00050
                               V22  TOT/SRF=     0.00117    -0.00086
                               V22M TOT/SRF=    -0.00001     0.00000
                               V21  TOT/SRF=     0.00000     0.00000
                               V21M TOT/SRF=     0.00000     0.00000

              0.00124   -0.00001    0.00000        0.00124    0.00000    0.00000
             -0.00001   -0.00111    0.00000        0.00000   -0.00111    0.00000
              0.00000    0.00000   -0.00013        0.00000    0.00000   -0.00013

         MAIN DIRECTIONS OF THE EFG   1.0000  0.0024  0.0000
                                     -0.0024  1.0000  0.0000
                                      0.0000  0.0000  1.0000
:ANG042:  ANGLE WITH OLD X-AXIS =         0.1

:ETA042:                         ASYMM. ETA =     0.78605


       ATOMNUMBER= 43 Cl         VCOUL-ZERO =  0.24800E+00
:EFG043:                        EFG         =    -0.00149   *10**21  V / m**2
                               V20  TOT/SRF=     0.00085     0.00000
                               V22  TOT/SRF=    -0.00100    -0.00002
                               V22M TOT/SRF=     0.00000     0.00000
                               V21  TOT/SRF=     0.00000     0.00000
                               V21M TOT/SRF=     0.00000     0.00000

             -0.00149    0.00000    0.00000       -0.00149    0.00000    0.00000
              0.00000    0.00051    0.00000        0.00000    0.00051    0.00000
              0.00000    0.00000    0.00098        0.00000    0.00000    0.00098

         MAIN DIRECTIONS OF THE EFG   1.0000  0.0004  0.0000
                                     -0.0004  1.0000  0.0000
                                      0.0000  0.0000  1.0000
:ANG043:  ANGLE WITH OLD X-AXIS =         0.0

:ETA043:                         ASYMM. ETA =     0.31212


       ATOMNUMBER= 44 Cl         VCOUL-ZERO =  0.24805E+00
:EFG044:                        EFG         =    -0.00108   *10**21  V / m**2
                               V20  TOT/SRF=     0.00026    -0.00001
                               V22  TOT/SRF=     0.00093     0.00002
                               V22M TOT/SRF=     0.00000     0.00000
                               V21  TOT/SRF=     0.00000     0.00000
                               V21M TOT/SRF=     0.00000     0.00000

              0.00078    0.00000    0.00000        0.00078    0.00000    0.00000
              0.00000   -0.00108    0.00000        0.00000   -0.00108    0.00000
              0.00000    0.00000    0.00030        0.00000    0.00000    0.00030

         MAIN DIRECTIONS OF THE EFG   1.0000 -0.0004  0.0000
                                      0.0004  1.0000  0.0000
                                      0.0000  0.0000  1.0000
:ANG044:  ANGLE WITH OLD X-AXIS =         0.0

:ETA044:                         ASYMM. ETA =     0.44985


       ATOMNUMBER= 45 Cl         VCOUL-ZERO =  0.24800E+00
:EFG045:                        EFG         =     0.00149   *10**21  V / m**2
                               V20  TOT/SRF=     0.00129     0.00001
                               V22  TOT/SRF=    -0.00074    -0.00001
                               V22M TOT/SRF=     0.00000     0.00000
                               V21  TOT/SRF=     0.00000     0.00000
                               V21M TOT/SRF=     0.00000     0.00000

             -0.00149    0.00000    0.00000       -0.00149    0.00000    0.00000
              0.00000    0.00000    0.00000        0.00000    0.00000    0.00000
              0.00000    0.00000    0.00149        0.00000    0.00000    0.00149

         MAIN DIRECTIONS OF THE EFG   1.0000  0.0000  0.0000
                                      0.0000  1.0000  0.0000
                                      0.0000  0.0000  1.0000
:ANG045:  ANGLE WITH OLD X-AXIS =         0.0

:ETA045:                         ASYMM. ETA =     0.99519


       ATOMNUMBER= 46 Cl         VCOUL-ZERO =  0.24805E+00
:EFG046:                        EFG         =     0.00078   *10**21  V / m**2
                               V20  TOT/SRF=    -0.00008    -0.00002
                               V22  TOT/SRF=     0.00073     0.00001
                               V22M TOT/SRF=     0.00000     0.00000
                               V21  TOT/SRF=     0.00000     0.00000
                               V21M TOT/SRF=     0.00000     0.00000

              0.00078    0.00000    0.00000        0.00078    0.00000    0.00000
              0.00000   -0.00068    0.00000        0.00000   -0.00068    0.00000
              0.00000    0.00000   -0.00010        0.00000    0.00000   -0.00010

         MAIN DIRECTIONS OF THE EFG   1.0000  0.0000  0.0000
                                      0.0000  1.0000  0.0000
                                      0.0000  0.0000  1.0000
:ANG046:  ANGLE WITH OLD X-AXIS =         0.0

:ETA046:                         ASYMM. ETA =     0.75158


       ATOMNUMBER= 47 Cl         VCOUL-ZERO =  0.24800E+00
:EFG047:                        EFG         =    -0.00113   *10**21  V / m**2
                               V20  TOT/SRF=     0.00091     0.00000
                               V22  TOT/SRF=    -0.00060    -0.00001
                               V22M TOT/SRF=     0.00000     0.00000
                               V21  TOT/SRF=     0.00000     0.00000
                               V21M TOT/SRF=     0.00000     0.00000

             -0.00113    0.00000    0.00000       -0.00113    0.00000    0.00000
              0.00000    0.00007    0.00000        0.00000    0.00007    0.00000
              0.00000    0.00000    0.00106        0.00000    0.00000    0.00106

         MAIN DIRECTIONS OF THE EFG   1.0000 -0.0001  0.0000
                                      0.0001  1.0000  0.0000
                                      0.0000  0.0000  1.0000
:ANG047:  ANGLE WITH OLD X-AXIS =         0.0

:ETA047:                         ASYMM. ETA =     0.86804


       ATOMNUMBER= 48 Cl         VCOUL-ZERO =  0.24805E+00
:EFG048:                        EFG         =    -0.00072   *10**21  V / m**2
                               V20  TOT/SRF=     0.00022    -0.00001
                               V22  TOT/SRF=     0.00060     0.00001
                               V22M TOT/SRF=     0.00000     0.00000
                               V21  TOT/SRF=     0.00000     0.00000
                               V21M TOT/SRF=     0.00000     0.00000

              0.00047    0.00000    0.00000        0.00047    0.00000    0.00000
              0.00000   -0.00072    0.00000        0.00000   -0.00072    0.00000
              0.00000    0.00000    0.00026        0.00000    0.00000    0.00026

         MAIN DIRECTIONS OF THE EFG   1.0000  0.0001  0.0000
                                     -0.0001  1.0000  0.0000
                                      0.0000  0.0000  1.0000
:ANG048:  ANGLE WITH OLD X-AXIS =         0.0

:ETA048:                         ASYMM. ETA =     0.29118


       ATOMNUMBER= 49 Cl         VCOUL-ZERO =  0.24803E+00
:EFG049:                        EFG         =    -0.01445   *10**21  V / m**2
                               V20  TOT/SRF=     0.00054     0.00000
                               V22  TOT/SRF=     0.00007     0.00000
                               V22M TOT/SRF=    -0.01414    -0.00042
                               V21  TOT/SRF=     0.00000     0.00000
                               V21M TOT/SRF=     0.00000     0.00000

             -0.00023   -0.01414    0.00000       -0.01445    0.00000    0.00000
             -0.01414   -0.00038    0.00000        0.00000    0.01383    0.00000
              0.00000    0.00000    0.00062        0.00000    0.00000    0.00062

         MAIN DIRECTIONS OF THE EFG   0.9948  1.0000  0.0000
                                      1.0000 -0.9948  0.0000
                                      0.0000  0.0000  1.0000
:ANG049:  ANGLE WITH OLD X-AXIS =        45.2

:ETA049:                         ASYMM. ETA =     0.91447


       ATOMNUMBER= 50 Cl         VCOUL-ZERO =  0.24803E+00
:EFG050:                        EFG         =    -0.00408   *10**21  V / m**2
                               V20  TOT/SRF=     0.00055     0.00000
                               V22  TOT/SRF=     0.00003     0.00000
                               V22M TOT/SRF=     0.00377     0.00006
                               V21  TOT/SRF=     0.00000     0.00000
                               V21M TOT/SRF=     0.00000     0.00000

             -0.00028    0.00377    0.00000       -0.00408    0.00000    0.00000
              0.00377   -0.00035    0.00000        0.00000    0.00346    0.00000
              0.00000    0.00000    0.00063        0.00000    0.00000    0.00063

         MAIN DIRECTIONS OF THE EFG  -0.9915  1.0000  0.0000
                                      1.0000  0.9915  0.0000
                                      0.0000  0.0000  1.0000
:ANG050:  ANGLE WITH OLD X-AXIS =       134.8

:ETA050:                         ASYMM. ETA =     0.69170


       ATOMNUMBER= 51 Cl         VCOUL-ZERO =  0.24803E+00
:EFG051:                        EFG         =    -0.01452   *10**21  V / m**2
                               V20  TOT/SRF=     0.00053     0.00000
                               V22  TOT/SRF=     0.00007     0.00000
                               V22M TOT/SRF=     0.01421     0.00041
                               V21  TOT/SRF=     0.00000     0.00000
                               V21M TOT/SRF=     0.00000     0.00000

             -0.00023    0.01421    0.00000       -0.01452    0.00000    0.00000
              0.01421   -0.00038    0.00000        0.00000    0.01391    0.00000
              0.00000    0.00000    0.00062        0.00000    0.00000    0.00062

         MAIN DIRECTIONS OF THE EFG  -0.9948  1.0000  0.0000
                                      1.0000  0.9948  0.0000
                                      0.0000  0.0000  1.0000
:ANG051:  ANGLE WITH OLD X-AXIS =       134.9

:ETA051:                         ASYMM. ETA =     0.91509


       ATOMNUMBER= 52 Cl         VCOUL-ZERO =  0.24803E+00
:EFG052:                        EFG         =    -0.00408   *10**21  V / m**2
                               V20  TOT/SRF=     0.00055     0.00000
                               V22  TOT/SRF=     0.00003     0.00000
                               V22M TOT/SRF=    -0.00377    -0.00006
                               V21  TOT/SRF=     0.00000     0.00000
                               V21M TOT/SRF=     0.00000     0.00000

             -0.00028   -0.00377    0.00000       -0.00408    0.00000    0.00000
             -0.00377   -0.00035    0.00000        0.00000    0.00345    0.00000
              0.00000    0.00000    0.00063        0.00000    0.00000    0.00063

         MAIN DIRECTIONS OF THE EFG   0.9915  1.0000  0.0000
                                      1.0000 -0.9915  0.0000
                                      0.0000  0.0000  1.0000
:ANG052:  ANGLE WITH OLD X-AXIS =        45.2

:ETA052:                         ASYMM. ETA =     0.69159


       ATOMNUMBER= 53 Cl         VCOUL-ZERO =  0.24803E+00
:EFG053:                        EFG         =     0.00065   *10**21  V / m**2
                               V20  TOT/SRF=     0.00056     0.00000
                               V22  TOT/SRF=     0.00001     0.00000
                               V22M TOT/SRF=     0.00014     0.00000
                               V21  TOT/SRF=     0.00000     0.00000
                               V21M TOT/SRF=     0.00000     0.00000

             -0.00032    0.00014    0.00000       -0.00046    0.00000    0.00000
              0.00014   -0.00033    0.00000        0.00000   -0.00019    0.00000
              0.00000    0.00000    0.00065        0.00000    0.00000    0.00065

         MAIN DIRECTIONS OF THE EFG  -0.9600  1.0000  0.0000
                                      1.0000  0.9600  0.0000
                                      0.0000  0.0000  1.0000
:ANG053:  ANGLE WITH OLD X-AXIS =       133.8

:ETA053:                         ASYMM. ETA =     0.41501


       ATOMNUMBER= 54 Cl         VCOUL-ZERO =  0.24803E+00
:EFG054:                        EFG         =     0.00066   *10**21  V / m**2
                               V20  TOT/SRF=     0.00057     0.00000
                               V22  TOT/SRF=     0.00000     0.00000
                               V22M TOT/SRF=    -0.00006     0.00000
                               V21  TOT/SRF=     0.00000     0.00000
                               V21M TOT/SRF=     0.00000     0.00000

             -0.00033   -0.00006    0.00000       -0.00039    0.00000    0.00000
             -0.00006   -0.00033    0.00000        0.00000   -0.00026    0.00000
              0.00000    0.00000    0.00066        0.00000    0.00000    0.00066

         MAIN DIRECTIONS OF THE EFG   1.0000 -0.9857  0.0000
                                      0.9857  1.0000  0.0000
                                      0.0000  0.0000  1.0000
:ANG054:  ANGLE WITH OLD X-AXIS =        44.6

:ETA054:                         ASYMM. ETA =     0.19668


       ATOMNUMBER= 55 Cl         VCOUL-ZERO =  0.24803E+00
:EFG055:                        EFG         =     0.00065   *10**21  V / m**2
                               V20  TOT/SRF=     0.00056     0.00000
                               V22  TOT/SRF=     0.00001     0.00000
                               V22M TOT/SRF=    -0.00014     0.00000
                               V21  TOT/SRF=     0.00000     0.00000
                               V21M TOT/SRF=     0.00000     0.00000

             -0.00032   -0.00014    0.00000       -0.00046    0.00000    0.00000
             -0.00014   -0.00033    0.00000        0.00000   -0.00019    0.00000
              0.00000    0.00000    0.00065        0.00000    0.00000    0.00065

         MAIN DIRECTIONS OF THE EFG   0.9601  1.0000  0.0000
                                      1.0000 -0.9601  0.0000
                                      0.0000  0.0000  1.0000
:ANG055:  ANGLE WITH OLD X-AXIS =        46.2

:ETA055:                         ASYMM. ETA =     0.41563


       ATOMNUMBER= 56 Cl         VCOUL-ZERO =  0.24803E+00
:EFG056:                        EFG         =     0.00066   *10**21  V / m**2
                               V20  TOT/SRF=     0.00057     0.00000
                               V22  TOT/SRF=     0.00000     0.00000
                               V22M TOT/SRF=     0.00006     0.00000
                               V21  TOT/SRF=     0.00000     0.00000
                               V21M TOT/SRF=     0.00000     0.00000

             -0.00033    0.00006    0.00000       -0.00039    0.00000    0.00000
              0.00006   -0.00033    0.00000        0.00000   -0.00026    0.00000
              0.00000    0.00000    0.00066        0.00000    0.00000    0.00066

         MAIN DIRECTIONS OF THE EFG   1.0000  0.9856  0.0000
                                     -0.9856  1.0000  0.0000
                                      0.0000  0.0000  1.0000
:ANG056:  ANGLE WITH OLD X-AXIS =        44.6

:ETA056:                         ASYMM. ETA =     0.19659


       ATOMNUMBER= 57 Cl         VCOUL-ZERO =  0.24803E+00
:EFG057:                        EFG         =     0.01435   *10**21  V / m**2
                               V20  TOT/SRF=     0.00052     0.00000
                               V22  TOT/SRF=     0.00006     0.00000
                               V22M TOT/SRF=     0.00000     0.00000
                               V21  TOT/SRF=    -0.01416    -0.00042
                               V21M TOT/SRF=     0.00000     0.00000

             -0.00023    0.00000   -0.01416        0.01435    0.00000    0.00000
              0.00000   -0.00036    0.00000        0.00000   -0.01399    0.00000
             -0.01416    0.00000    0.00060        0.00000    0.00000   -0.00036

         MAIN DIRECTIONS OF THE EFG  -0.9711  1.0000  0.0000
                                      0.0000  0.0000  1.0000
                                      1.0000  0.9711  0.0000
:ANG057:  ANGLE WITH OLD X-AXIS =       134.2

:ETA057:                         ASYMM. ETA =     0.94943


       ATOMNUMBER= 58 Cl         VCOUL-ZERO =  0.24803E+00
:EFG058:                        EFG         =     0.00397   *10**21  V / m**2
                               V20  TOT/SRF=     0.00055     0.00000
                               V22  TOT/SRF=     0.00003     0.00000
                               V22M TOT/SRF=     0.00000     0.00000
                               V21  TOT/SRF=     0.00377     0.00006
                               V21M TOT/SRF=     0.00000     0.00000

             -0.00028    0.00000    0.00377        0.00397    0.00000    0.00000
              0.00000   -0.00035    0.00000        0.00000   -0.00362    0.00000
              0.00377    0.00000    0.00063        0.00000    0.00000   -0.00035

         MAIN DIRECTIONS OF THE EFG   0.8858  1.0000  0.0000
                                      0.0001 -0.0002  1.0000
                                      1.0000 -0.8858 -0.0001
:ANG058:  ANGLE WITH OLD X-AXIS =        48.5

:ETA058:                         ASYMM. ETA =     0.82310


       ATOMNUMBER= 59 Cl         VCOUL-ZERO =  0.24803E+00
:EFG059:                        EFG         =     0.00067   *10**21  V / m**2
                               V20  TOT/SRF=     0.00056     0.00000
                               V22  TOT/SRF=     0.00000     0.00000
                               V22M TOT/SRF=     0.00000     0.00000
                               V21  TOT/SRF=     0.00014     0.00000
                               V21M TOT/SRF=     0.00000     0.00000

             -0.00032    0.00000    0.00014        0.00067    0.00000    0.00000
              0.00000   -0.00033    0.00000        0.00000   -0.00034    0.00000
              0.00014    0.00000    0.00065        0.00000    0.00000   -0.00033

         MAIN DIRECTIONS OF THE EFG   0.1369  1.0000 -0.0308
                                      0.0000  0.0313  1.0000
                                      1.0000 -0.1369  0.0043
:ANG059:  ANGLE WITH OLD X-AXIS =        82.2

:ETA059:                         ASYMM. ETA =     0.01451


       ATOMNUMBER= 60 Cl         VCOUL-ZERO =  0.24803E+00
:EFG060:                        EFG         =     0.00066   *10**21  V / m**2
                               V20  TOT/SRF=     0.00057     0.00000
                               V22  TOT/SRF=     0.00000     0.00000
                               V22M TOT/SRF=     0.00000     0.00000
                               V21  TOT/SRF=    -0.00006     0.00000
                               V21M TOT/SRF=     0.00000     0.00000

             -0.00033    0.00000   -0.00006       -0.00033    0.00000    0.00000
              0.00000   -0.00033    0.00000        0.00000    0.00066    0.00000
             -0.00006    0.00000    0.00065        0.00000    0.00000   -0.00033

         MAIN DIRECTIONS OF THE EFG   1.0000 -0.0653  0.0054
                                     -0.0054  0.0000  1.0000
                                      0.0653  1.0000  0.0004
:ANG060:  ANGLE WITH OLD X-AXIS =         3.7

:ETA060:                         ASYMM. ETA =     0.01214


       ATOMNUMBER= 61 Cl         VCOUL-ZERO =  0.24803E+00
:EFG061:                        EFG         =     0.01435   *10**21  V / m**2
                               V20  TOT/SRF=     0.00052     0.00000
                               V22  TOT/SRF=     0.00006     0.00000
                               V22M TOT/SRF=     0.00000     0.00000
                               V21  TOT/SRF=     0.01416     0.00042
                               V21M TOT/SRF=     0.00000     0.00000

             -0.00023    0.00000    0.01416        0.01435    0.00000    0.00000
              0.00000   -0.00036    0.00000        0.00000   -0.01399    0.00000
              0.01416    0.00000    0.00060        0.00000    0.00000   -0.00036

         MAIN DIRECTIONS OF THE EFG   0.9711  1.0000  0.0000
                                      0.0000  0.0000  1.0000
                                      1.0000 -0.9711  0.0000
:ANG061:  ANGLE WITH OLD X-AXIS =        45.8

:ETA061:                         ASYMM. ETA =     0.94943


       ATOMNUMBER= 62 Cl         VCOUL-ZERO =  0.24803E+00
:EFG062:                        EFG         =     0.00397   *10**21  V / m**2
                               V20  TOT/SRF=     0.00055     0.00000
                               V22  TOT/SRF=     0.00003     0.00000
                               V22M TOT/SRF=     0.00000     0.00000
                               V21  TOT/SRF=    -0.00377    -0.00006
                               V21M TOT/SRF=     0.00000     0.00000

             -0.00028    0.00000   -0.00377        0.00397    0.00000    0.00000
              0.00000   -0.00035    0.00000        0.00000   -0.00362    0.00000
             -0.00377    0.00000    0.00063        0.00000    0.00000   -0.00035

         MAIN DIRECTIONS OF THE EFG  -0.8858  1.0000  0.0000
                                     -0.0001 -0.0002  1.0000
                                      1.0000  0.8858  0.0001
:ANG062:  ANGLE WITH OLD X-AXIS =       131.5

:ETA062:                         ASYMM. ETA =     0.82310


       ATOMNUMBER= 63 Cl         VCOUL-ZERO =  0.24803E+00
:EFG063:                        EFG         =     0.00067   *10**21  V / m**2
                               V20  TOT/SRF=     0.00056     0.00000
                               V22  TOT/SRF=     0.00000     0.00000
                               V22M TOT/SRF=     0.00000     0.00000
                               V21  TOT/SRF=    -0.00014     0.00000
                               V21M TOT/SRF=     0.00000     0.00000

             -0.00032    0.00000   -0.00014        0.00067    0.00000    0.00000
              0.00000   -0.00033    0.00000        0.00000   -0.00034    0.00000
             -0.00014    0.00000    0.00065        0.00000    0.00000   -0.00033

         MAIN DIRECTIONS OF THE EFG  -0.1369  1.0000 -0.0308
                                      0.0000  0.0313  1.0000
                                      1.0000  0.1369 -0.0043
:ANG063:  ANGLE WITH OLD X-AXIS =        97.8

:ETA063:                         ASYMM. ETA =     0.01451


       ATOMNUMBER= 64 Cl         VCOUL-ZERO =  0.24803E+00
:EFG064:                        EFG         =     0.00066   *10**21  V / m**2
                               V20  TOT/SRF=     0.00057     0.00000
                               V22  TOT/SRF=     0.00000     0.00000
                               V22M TOT/SRF=     0.00000     0.00000
                               V21  TOT/SRF=     0.00006     0.00000
                               V21M TOT/SRF=     0.00000     0.00000

             -0.00033    0.00000    0.00006       -0.00033    0.00000    0.00000
              0.00000   -0.00033    0.00000        0.00000    0.00066    0.00000
              0.00006    0.00000    0.00065        0.00000    0.00000   -0.00033

         MAIN DIRECTIONS OF THE EFG   1.0000  0.0653  0.0054
                                     -0.0054  0.0000  1.0000
                                     -0.0653  1.0000 -0.0004
:ANG064:  ANGLE WITH OLD X-AXIS =         3.7

:ETA064:                         ASYMM. ETA =     0.01214


     HELLMANN-FEYNMAN-FORCE IN mRy/a.u. = |F|  Fx       Fy             Fz
:FHF001:   1.ATOM          1.598          1.598          0.028          0.000

     HELLMANN-FEYNMAN-FORCE IN mRy/a.u. = |F|  Fx       Fy             Fz
:FHF002:   2.ATOM          1.406          1.405          0.029          0.000

     HELLMANN-FEYNMAN-FORCE IN mRy/a.u. = |F|  Fx       Fy             Fz
:FHF003:   3.ATOM          0.029          0.001          0.029          0.000

     HELLMANN-FEYNMAN-FORCE IN mRy/a.u. = |F|  Fx       Fy             Fz
:FHF004:   4.ATOM          0.046          0.036          0.029          0.000

     HELLMANN-FEYNMAN-FORCE IN mRy/a.u. = |F|  Fx       Fy             Fz
:FHF005:   5.ATOM          0.029          0.001          0.029          0.000

     HELLMANN-FEYNMAN-FORCE IN mRy/a.u. = |F|  Fx       Fy             Fz
:FHF006:   6.ATOM          0.046          0.036          0.029          0.000

     HELLMANN-FEYNMAN-FORCE IN mRy/a.u. = |F|  Fx       Fy             Fz
:FHF007:   7.ATOM          0.060         -0.053          0.029          0.000

     HELLMANN-FEYNMAN-FORCE IN mRy/a.u. = |F|  Fx       Fy             Fz
:FHF008:   8.ATOM          0.060          0.053          0.029          0.000

     HELLMANN-FEYNMAN-FORCE IN mRy/a.u. = |F|  Fx       Fy             Fz
:FHF009:   9.ATOM          0.180         -0.178          0.028         -0.001

     HELLMANN-FEYNMAN-FORCE IN mRy/a.u. = |F|  Fx       Fy             Fz
:FHF010:  10.ATOM          0.147          0.144          0.029          0.000

     HELLMANN-FEYNMAN-FORCE IN mRy/a.u. = |F|  Fx       Fy             Fz
:FHF011:  11.ATOM          0.181         -0.178          0.030         -0.001

     HELLMANN-FEYNMAN-FORCE IN mRy/a.u. = |F|  Fx       Fy             Fz
:FHF012:  12.ATOM          0.146          0.144          0.028          0.000

     HELLMANN-FEYNMAN-FORCE IN mRy/a.u. = |F|  Fx       Fy             Fz
:FHF013:  13.ATOM          0.180         -0.178          0.028          0.001

     HELLMANN-FEYNMAN-FORCE IN mRy/a.u. = |F|  Fx       Fy             Fz
:FHF014:  14.ATOM          0.147          0.144          0.029          0.000

     HELLMANN-FEYNMAN-FORCE IN mRy/a.u. = |F|  Fx       Fy             Fz
:FHF015:  15.ATOM          0.181         -0.178          0.030          0.001

     HELLMANN-FEYNMAN-FORCE IN mRy/a.u. = |F|  Fx       Fy             Fz
:FHF016:  16.ATOM          0.146          0.144          0.028          0.000

     HELLMANN-FEYNMAN-FORCE IN mRy/a.u. = |F|  Fx       Fy             Fz
:FHF017:  17.ATOM          0.704          0.097          0.029          0.697

     HELLMANN-FEYNMAN-FORCE IN mRy/a.u. = |F|  Fx       Fy             Fz
:FHF018:  18.ATOM          0.700          0.098          0.029         -0.692

     HELLMANN-FEYNMAN-FORCE IN mRy/a.u. = |F|  Fx       Fy             Fz
:FHF019:  19.ATOM          0.030         -0.002          0.029         -0.009

     HELLMANN-FEYNMAN-FORCE IN mRy/a.u. = |F|  Fx       Fy             Fz
:FHF020:  20.ATOM          0.030         -0.001          0.029          0.009

     HELLMANN-FEYNMAN-FORCE IN mRy/a.u. = |F|  Fx       Fy             Fz
:FHF021:  21.ATOM          0.704          0.097          0.029         -0.697

     HELLMANN-FEYNMAN-FORCE IN mRy/a.u. = |F|  Fx       Fy             Fz
:FHF022:  22.ATOM          0.700          0.098          0.029          0.692

     HELLMANN-FEYNMAN-FORCE IN mRy/a.u. = |F|  Fx       Fy             Fz
:FHF023:  23.ATOM          0.030         -0.002          0.029          0.009

     HELLMANN-FEYNMAN-FORCE IN mRy/a.u. = |F|  Fx       Fy             Fz
:FHF024:  24.ATOM          0.030         -0.001          0.029         -0.009

     HELLMANN-FEYNMAN-FORCE IN mRy/a.u. = |F|  Fx       Fy             Fz
:FHF025:  25.ATOM          0.732          0.097          0.725          0.000

     HELLMANN-FEYNMAN-FORCE IN mRy/a.u. = |F|  Fx       Fy             Fz
:FHF026:  26.ATOM          0.671          0.098         -0.664          0.000

     HELLMANN-FEYNMAN-FORCE IN mRy/a.u. = |F|  Fx       Fy             Fz
:FHF027:  27.ATOM          0.675          0.096         -0.668          0.000

     HELLMANN-FEYNMAN-FORCE IN mRy/a.u. = |F|  Fx       Fy             Fz
:FHF028:  28.ATOM          0.727          0.097          0.721          0.000

     HELLMANN-FEYNMAN-FORCE IN mRy/a.u. = |F|  Fx       Fy             Fz
:FHF029:  29.ATOM          0.020         -0.002          0.019          0.000

     HELLMANN-FEYNMAN-FORCE IN mRy/a.u. = |F|  Fx       Fy             Fz
:FHF030:  30.ATOM          0.037         -0.001          0.037          0.000

     HELLMANN-FEYNMAN-FORCE IN mRy/a.u. = |F|  Fx       Fy             Fz
:FHF031:  31.ATOM          0.038         -0.002          0.038          0.000

     HELLMANN-FEYNMAN-FORCE IN mRy/a.u. = |F|  Fx       Fy             Fz
:FHF032:  32.ATOM          0.020         -0.001          0.020          0.000

     HELLMANN-FEYNMAN-FORCE IN mRy/a.u. = |F|  Fx       Fy             Fz
:FHF033:  33.ATOM          0.190          0.025          0.125          0.141

     HELLMANN-FEYNMAN-FORCE IN mRy/a.u. = |F|  Fx       Fy             Fz
:FHF034:  34.ATOM          0.211          0.026         -0.156         -0.140

     HELLMANN-FEYNMAN-FORCE IN mRy/a.u. = |F|  Fx       Fy             Fz
:FHF035:  35.ATOM          0.212          0.025         -0.157          0.141

     HELLMANN-FEYNMAN-FORCE IN mRy/a.u. = |F|  Fx       Fy             Fz
:FHF036:  36.ATOM          0.189          0.026          0.124         -0.140

     HELLMANN-FEYNMAN-FORCE IN mRy/a.u. = |F|  Fx       Fy             Fz
:FHF037:  37.ATOM          0.190          0.025          0.125         -0.141

     HELLMANN-FEYNMAN-FORCE IN mRy/a.u. = |F|  Fx       Fy             Fz
:FHF038:  38.ATOM          0.211          0.026         -0.156          0.140

     HELLMANN-FEYNMAN-FORCE IN mRy/a.u. = |F|  Fx       Fy             Fz
:FHF039:  39.ATOM          0.212          0.025         -0.157         -0.141

     HELLMANN-FEYNMAN-FORCE IN mRy/a.u. = |F|  Fx       Fy             Fz
:FHF040:  40.ATOM          0.189          0.026          0.124          0.140

     HELLMANN-FEYNMAN-FORCE IN mRy/a.u. = |F|  Fx       Fy             Fz
:FHF041:  41.ATOM          1.884          1.884         -0.016          0.000

     HELLMANN-FEYNMAN-FORCE IN mRy/a.u. = |F|  Fx       Fy             Fz
:FHF042:  42.ATOM          1.881          1.881         -0.016          0.000

     HELLMANN-FEYNMAN-FORCE IN mRy/a.u. = |F|  Fx       Fy             Fz
:FHF043:  43.ATOM          0.023         -0.016         -0.016          0.000

     HELLMANN-FEYNMAN-FORCE IN mRy/a.u. = |F|  Fx       Fy             Fz
:FHF044:  44.ATOM          0.022         -0.015         -0.016          0.000

     HELLMANN-FEYNMAN-FORCE IN mRy/a.u. = |F|  Fx       Fy             Fz
:FHF045:  45.ATOM          0.023         -0.016         -0.016          0.000

     HELLMANN-FEYNMAN-FORCE IN mRy/a.u. = |F|  Fx       Fy             Fz
:FHF046:  46.ATOM          0.022         -0.015         -0.016          0.000

     HELLMANN-FEYNMAN-FORCE IN mRy/a.u. = |F|  Fx       Fy             Fz
:FHF047:  47.ATOM          0.016         -0.001         -0.016          0.000

     HELLMANN-FEYNMAN-FORCE IN mRy/a.u. = |F|  Fx       Fy             Fz
:FHF048:  48.ATOM          0.016         -0.001         -0.016          0.000

     HELLMANN-FEYNMAN-FORCE IN mRy/a.u. = |F|  Fx       Fy             Fz
:FHF049:  49.ATOM          0.896         -0.896         -0.020          0.000

     HELLMANN-FEYNMAN-FORCE IN mRy/a.u. = |F|  Fx       Fy             Fz
:FHF050:  50.ATOM          0.305          0.305         -0.015          0.000

     HELLMANN-FEYNMAN-FORCE IN mRy/a.u. = |F|  Fx       Fy             Fz
:FHF051:  51.ATOM          0.897         -0.897         -0.012          0.000

     HELLMANN-FEYNMAN-FORCE IN mRy/a.u. = |F|  Fx       Fy             Fz
:FHF052:  52.ATOM          0.305          0.305         -0.016          0.000

     HELLMANN-FEYNMAN-FORCE IN mRy/a.u. = |F|  Fx       Fy             Fz
:FHF053:  53.ATOM          0.068         -0.066         -0.016          0.000

     HELLMANN-FEYNMAN-FORCE IN mRy/a.u. = |F|  Fx       Fy             Fz
:FHF054:  54.ATOM          0.074          0.072         -0.016          0.000

     HELLMANN-FEYNMAN-FORCE IN mRy/a.u. = |F|  Fx       Fy             Fz
:FHF055:  55.ATOM          0.067         -0.066         -0.015          0.000

     HELLMANN-FEYNMAN-FORCE IN mRy/a.u. = |F|  Fx       Fy             Fz
:FHF056:  56.ATOM          0.074          0.072         -0.016          0.000

     HELLMANN-FEYNMAN-FORCE IN mRy/a.u. = |F|  Fx       Fy             Fz
:FHF057:  57.ATOM          0.896         -0.896         -0.016         -0.004

     HELLMANN-FEYNMAN-FORCE IN mRy/a.u. = |F|  Fx       Fy             Fz
:FHF058:  58.ATOM          0.305          0.305         -0.016          0.000

     HELLMANN-FEYNMAN-FORCE IN mRy/a.u. = |F|  Fx       Fy             Fz
:FHF059:  59.ATOM          0.068         -0.066         -0.016          0.000

     HELLMANN-FEYNMAN-FORCE IN mRy/a.u. = |F|  Fx       Fy             Fz
:FHF060:  60.ATOM          0.074          0.072         -0.016          0.000

     HELLMANN-FEYNMAN-FORCE IN mRy/a.u. = |F|  Fx       Fy             Fz
:FHF061:  61.ATOM          0.896         -0.896         -0.016          0.004

     HELLMANN-FEYNMAN-FORCE IN mRy/a.u. = |F|  Fx       Fy             Fz
:FHF062:  62.ATOM          0.305          0.305         -0.016          0.000

     HELLMANN-FEYNMAN-FORCE IN mRy/a.u. = |F|  Fx       Fy             Fz
:FHF063:  63.ATOM          0.068         -0.066         -0.016          0.000

     HELLMANN-FEYNMAN-FORCE IN mRy/a.u. = |F|  Fx       Fy             Fz
:FHF064:  64.ATOM          0.074          0.072         -0.016          0.000

:FIT001: LUSE= 13 SIGMA OF V-XC FIT FOR ATOM  1  0.1986556E-01
:FIT001: LUSE= 13 SIGMA OF V-XC FIT FOR ATOM  1  0.1986556E-01
:FIT002: LUSE= 13 SIGMA OF V-XC FIT FOR ATOM  2  0.1986233E-01
:FIT002: LUSE= 13 SIGMA OF V-XC FIT FOR ATOM  2  0.1986233E-01
:FIT003: LUSE= 13 SIGMA OF V-XC FIT FOR ATOM  3  0.1986245E-01
:FIT003: LUSE= 13 SIGMA OF V-XC FIT FOR ATOM  3  0.1986245E-01
:FIT004: LUSE= 13 SIGMA OF V-XC FIT FOR ATOM  4  0.1986244E-01
:FIT004: LUSE= 13 SIGMA OF V-XC FIT FOR ATOM  4  0.1986244E-01
:FIT005: LUSE= 13 SIGMA OF V-XC FIT FOR ATOM  5  0.1986244E-01
:FIT005: LUSE= 13 SIGMA OF V-XC FIT FOR ATOM  5  0.1986244E-01
:FIT006: LUSE= 13 SIGMA OF V-XC FIT FOR ATOM  6  0.1986244E-01
:FIT006: LUSE= 13 SIGMA OF V-XC FIT FOR ATOM  6  0.1986244E-01
:FIT007: LUSE= 13 SIGMA OF V-XC FIT FOR ATOM  7  0.1986245E-01
:FIT007: LUSE= 13 SIGMA OF V-XC FIT FOR ATOM  7  0.1986245E-01
:FIT008: LUSE= 13 SIGMA OF V-XC FIT FOR ATOM  8  0.1986244E-01
:FIT008: LUSE= 13 SIGMA OF V-XC FIT FOR ATOM  8  0.1986244E-01
:FIT009: LUSE= 13 SIGMA OF V-XC FIT FOR ATOM  9  0.1986244E-01
:FIT009: LUSE= 13 SIGMA OF V-XC FIT FOR ATOM  9  0.1986244E-01
:FIT010: LUSE= 13 SIGMA OF V-XC FIT FOR ATOM 10  0.1986243E-01
:FIT010: LUSE= 13 SIGMA OF V-XC FIT FOR ATOM 10  0.1986243E-01
:FIT011: LUSE= 13 SIGMA OF V-XC FIT FOR ATOM 11  0.1986245E-01
:FIT011: LUSE= 13 SIGMA OF V-XC FIT FOR ATOM 11  0.1986245E-01
:FIT012: LUSE= 13 SIGMA OF V-XC FIT FOR ATOM 12  0.1986243E-01
:FIT012: LUSE= 13 SIGMA OF V-XC FIT FOR ATOM 12  0.1986243E-01
:FIT013: LUSE= 13 SIGMA OF V-XC FIT FOR ATOM 13  0.1986244E-01
:FIT013: LUSE= 13 SIGMA OF V-XC FIT FOR ATOM 13  0.1986244E-01
:FIT014: LUSE= 13 SIGMA OF V-XC FIT FOR ATOM 14  0.1986243E-01
:FIT014: LUSE= 13 SIGMA OF V-XC FIT FOR ATOM 14  0.1986243E-01
:FIT015: LUSE= 13 SIGMA OF V-XC FIT FOR ATOM 15  0.1986245E-01
:FIT015: LUSE= 13 SIGMA OF V-XC FIT FOR ATOM 15  0.1986245E-01
:FIT016: LUSE= 13 SIGMA OF V-XC FIT FOR ATOM 16  0.1986243E-01
:FIT016: LUSE= 13 SIGMA OF V-XC FIT FOR ATOM 16  0.1986243E-01
:FIT017: LUSE= 13 SIGMA OF V-XC FIT FOR ATOM 17  0.1986282E-01
:FIT017: LUSE= 13 SIGMA OF V-XC FIT FOR ATOM 17  0.1986282E-01
:FIT018: LUSE= 13 SIGMA OF V-XC FIT FOR ATOM 18  0.1985371E-01
:FIT018: LUSE= 13 SIGMA OF V-XC FIT FOR ATOM 18  0.1985371E-01
:FIT019: LUSE= 13 SIGMA OF V-XC FIT FOR ATOM 19  0.1986187E-01
:FIT019: LUSE= 13 SIGMA OF V-XC FIT FOR ATOM 19  0.1986187E-01
:FIT020: LUSE= 13 SIGMA OF V-XC FIT FOR ATOM 20  0.1986301E-01
:FIT020: LUSE= 13 SIGMA OF V-XC FIT FOR ATOM 20  0.1986301E-01
:FIT021: LUSE= 13 SIGMA OF V-XC FIT FOR ATOM 21  0.1986282E-01
:FIT021: LUSE= 13 SIGMA OF V-XC FIT FOR ATOM 21  0.1986282E-01
:FIT022: LUSE= 13 SIGMA OF V-XC FIT FOR ATOM 22  0.1985371E-01
:FIT022: LUSE= 13 SIGMA OF V-XC FIT FOR ATOM 22  0.1985371E-01
:FIT023: LUSE= 13 SIGMA OF V-XC FIT FOR ATOM 23  0.1986187E-01
:FIT023: LUSE= 13 SIGMA OF V-XC FIT FOR ATOM 23  0.1986187E-01
:FIT024: LUSE= 13 SIGMA OF V-XC FIT FOR ATOM 24  0.1986301E-01
:FIT024: LUSE= 13 SIGMA OF V-XC FIT FOR ATOM 24  0.1986301E-01
:FIT025: LUSE= 13 SIGMA OF V-XC FIT FOR ATOM 25  0.1986228E-01
:FIT025: LUSE= 13 SIGMA OF V-XC FIT FOR ATOM 25  0.1986228E-01
:FIT026: LUSE= 13 SIGMA OF V-XC FIT FOR ATOM 26  0.1985430E-01
:FIT026: LUSE= 13 SIGMA OF V-XC FIT FOR ATOM 26  0.1985430E-01
:FIT027: LUSE= 13 SIGMA OF V-XC FIT FOR ATOM 27  0.1986165E-01
:FIT027: LUSE= 13 SIGMA OF V-XC FIT FOR ATOM 27  0.1986165E-01
:FIT028: LUSE= 13 SIGMA OF V-XC FIT FOR ATOM 28  0.1985490E-01
:FIT028: LUSE= 13 SIGMA OF V-XC FIT FOR ATOM 28  0.1985490E-01
:FIT029: LUSE= 13 SIGMA OF V-XC FIT FOR ATOM 29  0.1986193E-01
:FIT029: LUSE= 13 SIGMA OF V-XC FIT FOR ATOM 29  0.1986193E-01
:FIT030: LUSE= 13 SIGMA OF V-XC FIT FOR ATOM 30  0.1986295E-01
:FIT030: LUSE= 13 SIGMA OF V-XC FIT FOR ATOM 30  0.1986295E-01
:FIT031: LUSE= 13 SIGMA OF V-XC FIT FOR ATOM 31  0.1986193E-01
:FIT031: LUSE= 13 SIGMA OF V-XC FIT FOR ATOM 31  0.1986193E-01
:FIT032: LUSE= 13 SIGMA OF V-XC FIT FOR ATOM 32  0.1986295E-01
:FIT032: LUSE= 13 SIGMA OF V-XC FIT FOR ATOM 32  0.1986295E-01
:FIT033: LUSE= 13 SIGMA OF V-XC FIT FOR ATOM 33  0.9211480E-04
:FIT033: LUSE= 13 SIGMA OF V-XC FIT FOR ATOM 33  0.9211480E-04
:FIT034: LUSE= 13 SIGMA OF V-XC FIT FOR ATOM 34  0.9213998E-04
:FIT034: LUSE= 13 SIGMA OF V-XC FIT FOR ATOM 34  0.9213998E-04
:FIT035: LUSE= 13 SIGMA OF V-XC FIT FOR ATOM 35  0.9211475E-04
[...]
:CTO029: TOTAL   CHARGE IN SPHERE 29 =       10.1640865
:CTO030: TOTAL   CHARGE IN SPHERE 30 =       10.1640899
:CTO031: TOTAL   CHARGE IN SPHERE 31 =       10.1640865
:CTO032: TOTAL   CHARGE IN SPHERE 32 =       10.1640899
:CTO033: TOTAL   CHARGE IN SPHERE 33 =       16.4003170
:CTO034: TOTAL   CHARGE IN SPHERE 34 =       16.4003192
:CTO035: TOTAL   CHARGE IN SPHERE 35 =       16.4003170
:CTO036: TOTAL   CHARGE IN SPHERE 36 =       16.4003192
:CTO037: TOTAL   CHARGE IN SPHERE 37 =       16.4003170
:CTO038: TOTAL   CHARGE IN SPHERE 38 =       16.4003192
:CTO039: TOTAL   CHARGE IN SPHERE 39 =       16.4003170
:CTO040: TOTAL   CHARGE IN SPHERE 40 =       16.4003192
:CTO041: TOTAL   CHARGE IN SPHERE 41 =       16.4007525
:CTO042: TOTAL   CHARGE IN SPHERE 42 =       16.3998953
:CTO043: TOTAL   CHARGE IN SPHERE 43 =       16.4003191
:CTO044: TOTAL   CHARGE IN SPHERE 44 =       16.4003172
:CTO045: TOTAL   CHARGE IN SPHERE 45 =       16.4003191
:CTO046: TOTAL   CHARGE IN SPHERE 46 =       16.4003171
:CTO047: TOTAL   CHARGE IN SPHERE 47 =       16.4003176
:CTO048: TOTAL   CHARGE IN SPHERE 48 =       16.4003195
:CTO049: TOTAL   CHARGE IN SPHERE 49 =       16.4003172
:CTO050: TOTAL   CHARGE IN SPHERE 50 =       16.4003181
:CTO051: TOTAL   CHARGE IN SPHERE 51 =       16.4003172
:CTO052: TOTAL   CHARGE IN SPHERE 52 =       16.4003181
:CTO053: TOTAL   CHARGE IN SPHERE 53 =       16.4003185
:CTO054: TOTAL   CHARGE IN SPHERE 54 =       16.4003185
:CTO055: TOTAL   CHARGE IN SPHERE 55 =       16.4003185
:CTO056: TOTAL   CHARGE IN SPHERE 56 =       16.4003185
:CTO057: TOTAL   CHARGE IN SPHERE 57 =       16.4003172
:CTO058: TOTAL   CHARGE IN SPHERE 58 =       16.4003181
:CTO059: TOTAL   CHARGE IN SPHERE 59 =       16.4003185
:CTO060: TOTAL   CHARGE IN SPHERE 60 =       16.4003185
:CTO061: TOTAL   CHARGE IN SPHERE 61 =       16.4003172
:CTO062: TOTAL   CHARGE IN SPHERE 62 =       16.4003181
:CTO063: TOTAL   CHARGE IN SPHERE 63 =       16.4003185
:CTO064: TOTAL   CHARGE IN SPHERE 64 =       16.4003185

:NEC03: NUCLEAR AND ELECTRONIC CHARGE    896.00000   896.00000     1.00000


:ENE  : ********** TOTAL ENERGY IN Ry =       -39940.36224643

       TOTAL FORCE IN mRy/a.u. = |F|     Fx             Fy             Fz     with/without FOR in case.in2
:FOR001:   1.ATOM       0.779052      -0.779000       0.009000       0.000000 total forces
:FOR002:   2.ATOM       0.124403       0.124000       0.010000       0.000000 total forces
:FOR003:   3.ATOM       0.010050      -0.001000       0.010000       0.000000 total forces
:FOR004:   4.ATOM       0.010770       0.004000       0.010000       0.000000 total forces
:FOR005:   5.ATOM       0.010198      -0.002000       0.010000       0.000000 total forces
:FOR006:   6.ATOM       0.010770       0.004000       0.010000       0.000000 total forces
:FOR007:   7.ATOM       0.011662      -0.006000       0.010000       0.000000 total forces
:FOR008:   8.ATOM       0.011662       0.006000       0.010000       0.000000 total forces
:FOR009:   9.ATOM       0.024718      -0.023000       0.009000      -0.001000 total forces
:FOR010:  10.ATOM       0.018868       0.016000       0.010000       0.000000 total forces
:FOR011:  11.ATOM       0.025100      -0.023000       0.010000      -0.001000 total forces
:FOR012:  12.ATOM       0.018358       0.016000       0.009000       0.000000 total forces
:FOR013:  13.ATOM       0.024718      -0.023000       0.009000       0.001000 total forces
:FOR014:  14.ATOM       0.018868       0.016000       0.010000       0.000000 total forces
:FOR015:  15.ATOM       0.025100      -0.023000       0.010000       0.001000 total forces
:FOR016:  16.ATOM       0.018358       0.016000       0.009000       0.000000 total forces
:FOR017:  17.ATOM       0.084273       0.021000       0.010000       0.081000 total forces
:FOR018:  18.ATOM       0.082353       0.021000       0.010000      -0.079000 total forces
:FOR019:  19.ATOM       0.010050      -0.001000       0.010000       0.000000 total forces
:FOR020:  20.ATOM       0.010050       0.000000       0.010000       0.001000 total forces
:FOR021:  21.ATOM       0.084273       0.021000       0.010000      -0.081000 total forces
:FOR022:  22.ATOM       0.082353       0.021000       0.010000       0.079000 total forces
:FOR023:  23.ATOM       0.010050      -0.001000       0.010000       0.000000 total forces
:FOR024:  24.ATOM       0.010050       0.000000       0.010000      -0.001000 total forces
:FOR025:  25.ATOM       0.091444       0.021000       0.089000       0.000000 total forces
:FOR026:  26.ATOM       0.074041       0.021000      -0.071000       0.000000 total forces
:FOR027:  27.ATOM       0.074041       0.021000      -0.071000       0.000000 total forces
:FOR028:  28.ATOM       0.091220       0.020000       0.089000       0.000000 total forces
:FOR029:  29.ATOM       0.007071      -0.001000       0.007000       0.000000 total forces
:FOR030:  30.ATOM       0.009000       0.000000       0.009000       0.000000 total forces
:FOR031:  31.ATOM       0.010050      -0.001000       0.010000       0.000000 total forces
:FOR032:  32.ATOM       0.008000       0.000000       0.008000       0.000000 total forces
:FOR033:  33.ATOM       0.020809      -0.003000      -0.010000      -0.018000 total forces
:FOR034:  34.ATOM       0.031209      -0.003000       0.026000       0.017000 total forces
:FOR035:  35.ATOM       0.032588      -0.003000       0.027000      -0.018000 total forces
:FOR036:  36.ATOM       0.019468      -0.003000      -0.009000       0.017000 total forces
:FOR037:  37.ATOM       0.020809      -0.003000      -0.010000       0.018000 total forces
:FOR038:  38.ATOM       0.031209      -0.003000       0.026000      -0.017000 total forces
:FOR039:  39.ATOM       0.032588      -0.003000       0.027000       0.018000 total forces
:FOR040:  40.ATOM       0.019468      -0.003000      -0.009000      -0.017000 total forces
:FOR041:  41.ATOM       0.203199       0.203000       0.009000       0.000000 total forces
:FOR042:  42.ATOM       0.185219       0.185000       0.009000       0.000000 total forces
:FOR043:  43.ATOM       0.009487       0.003000       0.009000       0.000000 total forces
:FOR044:  44.ATOM       0.009220       0.002000       0.009000       0.000000 total forces
:FOR045:  45.ATOM       0.009487       0.003000       0.009000       0.000000 total forces
:FOR046:  46.ATOM       0.009220       0.002000       0.009000       0.000000 total forces
:FOR047:  47.ATOM       0.009055       0.001000       0.009000       0.000000 total forces
:FOR048:  48.ATOM       0.009055       0.001000       0.009000       0.000000 total forces
:FOR049:  49.ATOM       0.072443       0.072000       0.008000       0.000000 total forces
:FOR050:  50.ATOM       0.040025      -0.039000       0.009000       0.000000 total forces
:FOR051:  51.ATOM       0.073553       0.073000       0.009000       0.000000 total forces
:FOR052:  52.ATOM       0.040025      -0.039000       0.009000       0.000000 total forces
:FOR053:  53.ATOM       0.012042       0.008000       0.009000       0.000000 total forces
:FOR054:  54.ATOM       0.012728      -0.009000       0.009000       0.000000 total forces
:FOR055:  55.ATOM       0.012042       0.008000       0.009000       0.000000 total forces
:FOR056:  56.ATOM       0.012728      -0.009000       0.009000       0.000000 total forces
:FOR057:  57.ATOM       0.073553       0.073000       0.009000       0.000000 total forces
:FOR058:  58.ATOM       0.040025      -0.039000       0.009000       0.000000 total forces
:FOR059:  59.ATOM       0.012042       0.008000       0.009000       0.000000 total forces
:FOR060:  60.ATOM       0.012728      -0.009000       0.009000       0.000000 total forces
:FOR061:  61.ATOM       0.073553       0.073000       0.009000       0.000000 total forces
:FOR062:  62.ATOM       0.040025      -0.039000       0.009000       0.000000 total forces
:FOR063:  63.ATOM       0.012042       0.008000       0.009000       0.000000 total forces
:FOR064:  64.ATOM       0.012728      -0.009000       0.009000       0.000000 total forces

       TOTAL FORCE WITH RESPECT TO GLOBAL CARTESIAN COORDINATES:
:FCA001:   1.ATOM                     -0.779000       0.009000       0.000000 total forces
:FCA002:   2.ATOM                      0.124000       0.010000       0.000000 total forces
:FCA003:   3.ATOM                     -0.001000       0.010000       0.000000 total forces
:FCA004:   4.ATOM                      0.004000       0.010000       0.000000 total forces
:FCA005:   5.ATOM                     -0.002000       0.010000       0.000000 total forces
:FCA006:   6.ATOM                      0.004000       0.010000       0.000000 total forces
:FCA007:   7.ATOM                     -0.006000       0.010000       0.000000 total forces
:FCA008:   8.ATOM                      0.006000       0.010000       0.000000 total forces
:FCA009:   9.ATOM                     -0.023000       0.009000      -0.001000 total forces
:FCA010:  10.ATOM                      0.016000       0.010000       0.000000 total forces
:FCA011:  11.ATOM                     -0.023000       0.010000      -0.001000 total forces
:FCA012:  12.ATOM                      0.016000       0.009000       0.000000 total forces
:FCA013:  13.ATOM                     -0.023000       0.009000       0.001000 total forces
:FCA014:  14.ATOM                      0.016000       0.010000       0.000000 total forces
:FCA015:  15.ATOM                     -0.023000       0.010000       0.001000 total forces
:FCA016:  16.ATOM                      0.016000       0.009000       0.000000 total forces
:FCA017:  17.ATOM                      0.021000       0.010000       0.081000 total forces
:FCA018:  18.ATOM                      0.021000       0.010000      -0.079000 total forces
:FCA019:  19.ATOM                     -0.001000       0.010000       0.000000 total forces
:FCA020:  20.ATOM                      0.000000       0.010000       0.001000 total forces
:FCA021:  21.ATOM                      0.021000       0.010000      -0.081000 total forces
:FCA022:  22.ATOM                      0.021000       0.010000       0.079000 total forces
:FCA023:  23.ATOM                     -0.001000       0.010000       0.000000 total forces
:FCA024:  24.ATOM                      0.000000       0.010000      -0.001000 total forces
:FCA025:  25.ATOM                      0.021000       0.089000       0.000000 total forces
:FCA026:  26.ATOM                      0.021000      -0.071000       0.000000 total forces
:FCA027:  27.ATOM                      0.021000      -0.071000       0.000000 total forces
:FCA028:  28.ATOM                      0.020000       0.089000       0.000000 total forces
:FCA029:  29.ATOM                     -0.001000       0.007000       0.000000 total forces
:FCA030:  30.ATOM                      0.000000       0.009000       0.000000 total forces
:FCA031:  31.ATOM                     -0.001000       0.010000       0.000000 total forces
:FCA032:  32.ATOM                      0.000000       0.008000       0.000000 total forces
:FCA033:  33.ATOM                     -0.003000      -0.010000      -0.018000 total forces
:FCA034:  34.ATOM                     -0.003000       0.026000       0.017000 total forces
:FCA035:  35.ATOM                     -0.003000       0.027000      -0.018000 total forces
:FCA036:  36.ATOM                     -0.003000      -0.009000       0.017000 total forces
:FCA037:  37.ATOM                     -0.003000      -0.010000       0.018000 total forces
:FCA038:  38.ATOM                     -0.003000       0.026000      -0.017000 total forces
:FCA039:  39.ATOM                     -0.003000       0.027000       0.018000 total forces
:FCA040:  40.ATOM                     -0.003000      -0.009000      -0.017000 total forces
:FCA041:  41.ATOM                      0.203000       0.009000       0.000000 total forces
:FCA042:  42.ATOM                      0.185000       0.009000       0.000000 total forces
:FCA043:  43.ATOM                      0.003000       0.009000       0.000000 total forces
:FCA044:  44.ATOM                      0.002000       0.009000       0.000000 total forces
:FCA045:  45.ATOM                      0.003000       0.009000       0.000000 total forces
:FCA046:  46.ATOM                      0.002000       0.009000       0.000000 total forces
:FCA047:  47.ATOM                      0.001000       0.009000       0.000000 total forces
:FCA048:  48.ATOM                      0.001000       0.009000       0.000000 total forces
:FCA049:  49.ATOM                      0.072000       0.008000       0.000000 total forces
:FCA050:  50.ATOM                     -0.039000       0.009000       0.000000 total forces
:FCA051:  51.ATOM                      0.073000       0.009000       0.000000 total forces
:FCA052:  52.ATOM                     -0.039000       0.009000       0.000000 total forces
:FCA053:  53.ATOM                      0.008000       0.009000       0.000000 total forces
:FCA054:  54.ATOM                     -0.009000       0.009000       0.000000 total forces
:FCA055:  55.ATOM                      0.008000       0.009000       0.000000 total forces
:FCA056:  56.ATOM                     -0.009000       0.009000       0.000000 total forces
:FCA057:  57.ATOM                      0.073000       0.009000       0.000000 total forces
:FCA058:  58.ATOM                     -0.039000       0.009000       0.000000 total forces
:FCA059:  59.ATOM                      0.008000       0.009000       0.000000 total forces
:FCA060:  60.ATOM                     -0.009000       0.009000       0.000000 total forces
:FCA061:  61.ATOM                      0.073000       0.009000       0.000000 total forces
:FCA062:  62.ATOM                     -0.039000       0.009000       0.000000 total forces
:FCA063:  63.ATOM                      0.008000       0.009000       0.000000 total forces
:FCA064:  64.ATOM                     -0.009000       0.009000       0.000000 total forces

       TOTAL FORCE WITH RESPECT TO THE GLOBAL COORDINATE SYSTEM:
:FGL001:   1.ATOM                -0.779000000     0.009000000     0.000000000 total forces
:FGL002:   2.ATOM                 0.124000000     0.010000000     0.000000000 total forces
:FGL003:   3.ATOM                -0.001000000     0.010000000     0.000000000 total forces
:FGL004:   4.ATOM                 0.004000000     0.010000000     0.000000000 total forces
:FGL005:   5.ATOM                -0.002000000     0.010000000     0.000000000 total forces
:FGL006:   6.ATOM                 0.004000000     0.010000000     0.000000000 total forces
:FGL007:   7.ATOM                -0.006000000     0.010000000     0.000000000 total forces
:FGL008:   8.ATOM                 0.006000000     0.010000000     0.000000000 total forces
:FGL009:   9.ATOM                -0.023000000     0.009000000    -0.001000000 total forces
:FGL010:  10.ATOM                 0.016000000     0.010000000     0.000000000 total forces
:FGL011:  11.ATOM                -0.023000000     0.010000000    -0.001000000 total forces
:FGL012:  12.ATOM                 0.016000000     0.009000000     0.000000000 total forces
:FGL013:  13.ATOM                -0.023000000     0.009000000     0.001000000 total forces
:FGL014:  14.ATOM                 0.016000000     0.010000000     0.000000000 total forces
:FGL015:  15.ATOM                -0.023000000     0.010000000     0.001000000 total forces
:FGL016:  16.ATOM                 0.016000000     0.009000000     0.000000000 total forces
:FGL017:  17.ATOM                 0.021000000     0.010000000     0.081000000 total forces
:FGL018:  18.ATOM                 0.021000000     0.010000000    -0.079000000 total forces
:FGL019:  19.ATOM                -0.001000000     0.010000000     0.000000000 total forces
:FGL020:  20.ATOM                 0.000000000     0.010000000     0.001000000 total forces
:FGL021:  21.ATOM                 0.021000000     0.010000000    -0.081000000 total forces
:FGL022:  22.ATOM                 0.021000000     0.010000000     0.079000000 total forces
:FGL023:  23.ATOM                -0.001000000     0.010000000     0.000000000 total forces
:FGL024:  24.ATOM                 0.000000000     0.010000000    -0.001000000 total forces
:FGL025:  25.ATOM                 0.021000000     0.089000000     0.000000000 total forces
:FGL026:  26.ATOM                 0.021000000    -0.071000000     0.000000000 total forces
:FGL027:  27.ATOM                 0.021000000    -0.071000000     0.000000000 total forces
:FGL028:  28.ATOM                 0.020000000     0.089000000     0.000000000 total forces
:FGL029:  29.ATOM                -0.001000000     0.007000000     0.000000000 total forces
:FGL030:  30.ATOM                 0.000000000     0.009000000     0.000000000 total forces
:FGL031:  31.ATOM                -0.001000000     0.010000000     0.000000000 total forces
:FGL032:  32.ATOM                 0.000000000     0.008000000     0.000000000 total forces
:FGL033:  33.ATOM                -0.003000000    -0.010000000    -0.018000000 total forces
:FGL034:  34.ATOM                -0.003000000     0.026000000     0.017000000 total forces
:FGL035:  35.ATOM                -0.003000000     0.027000000    -0.018000000 total forces
:FGL036:  36.ATOM                -0.003000000    -0.009000000     0.017000000 total forces
:FGL037:  37.ATOM                -0.003000000    -0.010000000     0.018000000 total forces
:FGL038:  38.ATOM                -0.003000000     0.026000000    -0.017000000 total forces
:FGL039:  39.ATOM                -0.003000000     0.027000000     0.018000000 total forces
:FGL040:  40.ATOM                -0.003000000    -0.009000000    -0.017000000 total forces
:FGL041:  41.ATOM                 0.203000000     0.009000000     0.000000000 total forces
:FGL042:  42.ATOM                 0.185000000     0.009000000     0.000000000 total forces
:FGL043:  43.ATOM                 0.003000000     0.009000000     0.000000000 total forces
:FGL044:  44.ATOM                 0.002000000     0.009000000     0.000000000 total forces
:FGL045:  45.ATOM                 0.003000000     0.009000000     0.000000000 total forces
:FGL046:  46.ATOM                 0.002000000     0.009000000     0.000000000 total forces
:FGL047:  47.ATOM                 0.001000000     0.009000000     0.000000000 total forces
:FGL048:  48.ATOM                 0.001000000     0.009000000     0.000000000 total forces
:FGL049:  49.ATOM                 0.072000000     0.008000000     0.000000000 total forces
:FGL050:  50.ATOM                -0.039000000     0.009000000     0.000000000 total forces
:FGL051:  51.ATOM                 0.073000000     0.009000000     0.000000000 total forces
:FGL052:  52.ATOM                -0.039000000     0.009000000     0.000000000 total forces
:FGL053:  53.ATOM                 0.008000000     0.009000000     0.000000000 total forces
:FGL054:  54.ATOM                -0.009000000     0.009000000     0.000000000 total forces
:FGL055:  55.ATOM                 0.008000000     0.009000000     0.000000000 total forces
:FGL056:  56.ATOM                -0.009000000     0.009000000     0.000000000 total forces
:FGL057:  57.ATOM                 0.073000000     0.009000000     0.000000000 total forces
:FGL058:  58.ATOM                -0.039000000     0.009000000     0.000000000 total forces
:FGL059:  59.ATOM                 0.008000000     0.009000000     0.000000000 total forces
:FGL060:  60.ATOM                -0.009000000     0.009000000     0.000000000 total forces
:FGL061:  61.ATOM                 0.073000000     0.009000000     0.000000000 total forces
:FGL062:  62.ATOM                -0.039000000     0.009000000     0.000000000 total forces
:FGL063:  63.ATOM                 0.008000000     0.009000000     0.000000000 total forces
:FGL064:  64.ATOM                -0.009000000     0.009000000     0.000000000 total forces
:FSUM  : Sum of forces Fx,Fy,Fz           -0.00800            0.58800            0.00000
