
:LABEL1: Calculations in /home/togo/research/wien2k/NaCl/no-sym/NaCl-002
:LABEL2: on kelmis at Fri May 27 18:14:08 JST 2011
:LABEL3: using WIEN2k_11.1 (Release 5/4/2011) in /usr/local/calc/WIEN2k_11


            ---------
:ITE031: 31. ITERATION
            ---------

:NATO :   64 INDEPENDENT AND   64 TOTAL ATOMS IN UNITCELL
       SUBSTANCE: Title                                                       

       LATTICE                      = P   
:POT  : POTENTIAL OPTION   13
:LAT  : LATTICE CONSTANTS= 21.50622 21.50622 21.50622    1.571    1.571    1.571
:VOL  : UNIT CELL VOLUME =    9947.00586
       MODE OF CALCULATION IS       = RELA
       NON-SPINPOLARIZED CALCULATION
:IFFT  : FFT-parameters:  180  180  180 Factor: 2.00
       ATOMNUMBER=  1 Na         VCOUL-ZERO =  0.16074E+00
:EFG001:                        EFG         =    -0.00069   *10**21  V / m**2
                               V20  TOT/SRF=     0.00041     0.00003
                               V22  TOT/SRF=    -0.00045    -0.00005
                               V22M TOT/SRF=     0.00004     0.00001
                               V21  TOT/SRF=     0.00004     0.00001
                               V21M TOT/SRF=     0.00003     0.00001

             -0.00069    0.00004    0.00004       -0.00069    0.00000    0.00000
              0.00004    0.00021    0.00003        0.00000    0.00048    0.00000
              0.00004    0.00003    0.00048        0.00000    0.00000    0.00021

         MAIN DIRECTIONS OF THE EFG   1.0000  0.0383  0.0403
                                     -0.0439  0.1061  1.0000
                                     -0.0336  1.0000 -0.1076
:ANG001:  ANGLE WITH OLD X-AXIS =         3.2

:ETA001:                         ASYMM. ETA =     0.39440


       ATOMNUMBER=  2 Na         VCOUL-ZERO =  0.16090E+00
:EFG002:                        EFG         =     0.00052   *10**21  V / m**2
                               V20  TOT/SRF=    -0.00011    -0.00003
                               V22  TOT/SRF=     0.00045     0.00005
                               V22M TOT/SRF=     0.00004     0.00001
                               V21  TOT/SRF=     0.00004     0.00001
                               V21M TOT/SRF=    -0.00003    -0.00001

              0.00051    0.00004    0.00004        0.00052    0.00000    0.00000
              0.00004   -0.00039   -0.00003        0.00000   -0.00012    0.00000
              0.00004   -0.00003   -0.00012        0.00000    0.00000   -0.00039

         MAIN DIRECTIONS OF THE EFG   1.0000 -0.0569 -0.0494
                                      0.0429 -0.1096  1.0000
                                      0.0616  1.0000  0.1068
:ANG002:  ANGLE WITH OLD X-AXIS =         4.3

:ETA002:                         ASYMM. ETA =     0.52912


       ATOMNUMBER=  3 Na         VCOUL-ZERO =  0.16074E+00
:EFG003:                        EFG         =    -0.00069   *10**21  V / m**2
                               V20  TOT/SRF=     0.00041     0.00003
                               V22  TOT/SRF=    -0.00045    -0.00005
                               V22M TOT/SRF=    -0.00004    -0.00001
                               V21  TOT/SRF=     0.00004     0.00001
                               V21M TOT/SRF=    -0.00003    -0.00001

             -0.00069   -0.00004    0.00004       -0.00069    0.00000    0.00000
             -0.00004    0.00021   -0.00003        0.00000    0.00021    0.00000
              0.00004   -0.00003    0.00048        0.00000    0.00000    0.00048

         MAIN DIRECTIONS OF THE EFG   1.0000 -0.0402  0.0382
                                      0.0438  1.0000 -0.1060
                                     -0.0336  0.1075  1.0000
:ANG003:  ANGLE WITH OLD X-AXIS =         3.2

:ETA003:                         ASYMM. ETA =     0.39424


       ATOMNUMBER=  4 Na         VCOUL-ZERO =  0.16090E+00
:EFG004:                        EFG         =     0.00052   *10**21  V / m**2
                               V20  TOT/SRF=    -0.00011    -0.00003
                               V22  TOT/SRF=     0.00045     0.00005
                               V22M TOT/SRF=    -0.00004    -0.00001
                               V21  TOT/SRF=     0.00004     0.00001
                               V21M TOT/SRF=     0.00003     0.00001

              0.00051   -0.00004    0.00004        0.00052    0.00000    0.00000
             -0.00004   -0.00039    0.00003        0.00000   -0.00039    0.00000
              0.00004    0.00003   -0.00012        0.00000    0.00000   -0.00012

         MAIN DIRECTIONS OF THE EFG   1.0000  0.0494 -0.0569
                                     -0.0428  1.0000  0.1095
                                      0.0616 -0.1066  1.0000
:ANG004:  ANGLE WITH OLD X-AXIS =         4.3

:ETA004:                         ASYMM. ETA =     0.52930


       ATOMNUMBER=  5 Na         VCOUL-ZERO =  0.16074E+00
:EFG005:                        EFG         =    -0.00069   *10**21  V / m**2
                               V20  TOT/SRF=     0.00041     0.00003
                               V22  TOT/SRF=    -0.00045    -0.00005
                               V22M TOT/SRF=     0.00004     0.00001
                               V21  TOT/SRF=    -0.00004    -0.00001
                               V21M TOT/SRF=    -0.00003    -0.00001

             -0.00069    0.00004   -0.00004       -0.00069    0.00000    0.00000
              0.00004    0.00021   -0.00003        0.00000    0.00048    0.00000
             -0.00004   -0.00003    0.00048        0.00000    0.00000    0.00021

         MAIN DIRECTIONS OF THE EFG   1.0000 -0.0383  0.0403
                                     -0.0439 -0.1061  1.0000
                                      0.0336  1.0000  0.1076
:ANG005:  ANGLE WITH OLD X-AXIS =         3.2

:ETA005:                         ASYMM. ETA =     0.39440


       ATOMNUMBER=  6 Na         VCOUL-ZERO =  0.16090E+00
:EFG006:                        EFG         =     0.00052   *10**21  V / m**2
                               V20  TOT/SRF=    -0.00011    -0.00003
                               V22  TOT/SRF=     0.00045     0.00005
                               V22M TOT/SRF=     0.00004     0.00001
                               V21  TOT/SRF=    -0.00004    -0.00001
                               V21M TOT/SRF=     0.00003     0.00001

              0.00051    0.00004   -0.00004        0.00052    0.00000    0.00000
              0.00004   -0.00039    0.00003        0.00000   -0.00012    0.00000
             -0.00004    0.00003   -0.00012        0.00000    0.00000   -0.00039

         MAIN DIRECTIONS OF THE EFG   1.0000  0.0569 -0.0494
                                      0.0429  0.1096  1.0000
                                     -0.0616  1.0000 -0.1068
:ANG006:  ANGLE WITH OLD X-AXIS =         4.3

:ETA006:                         ASYMM. ETA =     0.52912


       ATOMNUMBER=  7 Na         VCOUL-ZERO =  0.16075E+00
:EFG007:                        EFG         =    -0.00069   *10**21  V / m**2
                               V20  TOT/SRF=     0.00041     0.00003
                               V22  TOT/SRF=    -0.00045    -0.00005
                               V22M TOT/SRF=    -0.00004    -0.00001
                               V21  TOT/SRF=    -0.00004    -0.00001
                               V21M TOT/SRF=     0.00003     0.00001

             -0.00069   -0.00004   -0.00004       -0.00069    0.00000    0.00000
             -0.00004    0.00021    0.00003        0.00000    0.00021    0.00000
             -0.00004    0.00003    0.00048        0.00000    0.00000    0.00048

         MAIN DIRECTIONS OF THE EFG   1.0000 -0.0402 -0.0382
                                      0.0438  1.0000  0.1060
                                      0.0336 -0.1075  1.0000
:ANG007:  ANGLE WITH OLD X-AXIS =         3.2

:ETA007:                         ASYMM. ETA =     0.39424


       ATOMNUMBER=  8 Na         VCOUL-ZERO =  0.16090E+00
:EFG008:                        EFG         =     0.00052   *10**21  V / m**2
                               V20  TOT/SRF=    -0.00011    -0.00003
                               V22  TOT/SRF=     0.00045     0.00005
                               V22M TOT/SRF=    -0.00004    -0.00001
                               V21  TOT/SRF=    -0.00004    -0.00001
                               V21M TOT/SRF=    -0.00003    -0.00001

              0.00051   -0.00004   -0.00004        0.00052    0.00000    0.00000
             -0.00004   -0.00039   -0.00003        0.00000   -0.00039    0.00000
             -0.00004   -0.00003   -0.00012        0.00000    0.00000   -0.00012

         MAIN DIRECTIONS OF THE EFG   1.0000  0.0494  0.0569
                                     -0.0428  1.0000 -0.1095
                                     -0.0616  0.1066  1.0000
:ANG008:  ANGLE WITH OLD X-AXIS =         4.3

:ETA008:                         ASYMM. ETA =     0.52929


       ATOMNUMBER=  9 Na         VCOUL-ZERO =  0.16038E+00
:EFG009:                        EFG         =     0.01540   *10**21  V / m**2
                               V20  TOT/SRF=    -0.00655    -0.00002
                               V22  TOT/SRF=     0.01161     0.00004
                               V22M TOT/SRF=     0.00001     0.00000
                               V21  TOT/SRF=     0.00000     0.00000
                               V21M TOT/SRF=     0.00000     0.00000

              0.01540    0.00001    0.00000        0.01540    0.00000    0.00000
              0.00001   -0.00783    0.00000        0.00000   -0.00783    0.00000
              0.00000    0.00000   -0.00756        0.00000    0.00000   -0.00756

         MAIN DIRECTIONS OF THE EFG   1.0000 -0.0004  0.0000
                                      0.0004  1.0000  0.0000
                                      0.0000  0.0000  1.0000
:ANG009:  ANGLE WITH OLD X-AXIS =         0.0

:ETA009:                         ASYMM. ETA =     0.01740


       ATOMNUMBER= 10 Na         VCOUL-ZERO =  0.16126E+00
:EFG010:                        EFG         =    -0.01587   *10**21  V / m**2
                               V20  TOT/SRF=     0.00698     0.00000
                               V22  TOT/SRF=    -0.01183    -0.00002
                               V22M TOT/SRF=     0.00001     0.00000
                               V21  TOT/SRF=     0.00000     0.00000
                               V21M TOT/SRF=     0.00000     0.00000

             -0.01587    0.00001    0.00000       -0.01587    0.00000    0.00000
              0.00001    0.00780    0.00000        0.00000    0.00780    0.00000
              0.00000    0.00000    0.00806        0.00000    0.00000    0.00806

         MAIN DIRECTIONS OF THE EFG   1.0000  0.0004  0.0000
                                     -0.0004  1.0000  0.0000
                                      0.0000  0.0000  1.0000
:ANG010:  ANGLE WITH OLD X-AXIS =         0.0

:ETA010:                         ASYMM. ETA =     0.01669


       ATOMNUMBER= 11 Na         VCOUL-ZERO =  0.16074E+00
:EFG011:                        EFG         =     0.00105   *10**21  V / m**2
                               V20  TOT/SRF=    -0.00019    -0.00004
                               V22  TOT/SRF=    -0.00094    -0.00010
                               V22M TOT/SRF=     0.00000     0.00000
                               V21  TOT/SRF=     0.00000     0.00000
                               V21M TOT/SRF=     0.00000     0.00000

             -0.00083    0.00000    0.00000       -0.00083    0.00000    0.00000
              0.00000    0.00105    0.00000        0.00000    0.00105    0.00000
              0.00000    0.00000   -0.00022        0.00000    0.00000   -0.00022

         MAIN DIRECTIONS OF THE EFG   1.0000  0.0001  0.0000
                                     -0.0001  1.0000  0.0000
                                      0.0000  0.0000  1.0000
:ANG011:  ANGLE WITH OLD X-AXIS =         0.0

:ETA011:                         ASYMM. ETA =     0.58084


       ATOMNUMBER= 12 Na         VCOUL-ZERO =  0.16091E+00
:EFG012:                        EFG         =    -0.00123   *10**21  V / m**2
                               V20  TOT/SRF=     0.00050     0.00003
                               V22  TOT/SRF=     0.00094     0.00010
                               V22M TOT/SRF=     0.00000     0.00000
                               V21  TOT/SRF=     0.00000     0.00000
                               V21M TOT/SRF=     0.00000     0.00000

              0.00065    0.00000    0.00000        0.00065    0.00000    0.00000
              0.00000   -0.00123    0.00000        0.00000   -0.00123    0.00000
              0.00000    0.00000    0.00058        0.00000    0.00000    0.00058

         MAIN DIRECTIONS OF THE EFG   1.0000 -0.0001  0.0000
                                      0.0001  1.0000  0.0000
                                      0.0000  0.0000  1.0000
:ANG012:  ANGLE WITH OLD X-AXIS =         0.0

:ETA012:                         ASYMM. ETA =     0.05999


       ATOMNUMBER= 13 Na         VCOUL-ZERO =  0.16074E+00
:EFG013:                        EFG         =     0.00131   *10**21  V / m**2
                               V20  TOT/SRF=     0.00114     0.00010
                               V22  TOT/SRF=    -0.00017    -0.00002
                               V22M TOT/SRF=     0.00000     0.00000
                               V21  TOT/SRF=     0.00000     0.00000
                               V21M TOT/SRF=     0.00000     0.00000

             -0.00083    0.00000    0.00000       -0.00083    0.00000    0.00000
              0.00000   -0.00049    0.00000        0.00000    0.00131    0.00000
              0.00000    0.00000    0.00131        0.00000    0.00000   -0.00049

         MAIN DIRECTIONS OF THE EFG   1.0000  0.0000  0.0001
                                     -0.0001  0.0000  1.0000
                                      0.0000  1.0000  0.0000
:ANG013:  ANGLE WITH OLD X-AXIS =         0.0

:ETA013:                         ASYMM. ETA =     0.25956


       ATOMNUMBER= 14 Na         VCOUL-ZERO =  0.16091E+00
:EFG014:                        EFG         =    -0.00096   *10**21  V / m**2
                               V20  TOT/SRF=    -0.00083    -0.00011
                               V22  TOT/SRF=     0.00017     0.00002
                               V22M TOT/SRF=     0.00000     0.00000
                               V21  TOT/SRF=     0.00000     0.00000
                               V21M TOT/SRF=     0.00000     0.00000

              0.00065    0.00000    0.00000        0.00065    0.00000    0.00000
              0.00000    0.00031    0.00000        0.00000   -0.00096    0.00000
              0.00000    0.00000   -0.00096        0.00000    0.00000    0.00031

         MAIN DIRECTIONS OF THE EFG   1.0000  0.0000 -0.0001
                                      0.0001  0.0000  1.0000
                                      0.0000  1.0000  0.0000
:ANG014:  ANGLE WITH OLD X-AXIS =         0.0

:ETA014:                         ASYMM. ETA =     0.35451


       ATOMNUMBER= 15 Na         VCOUL-ZERO =  0.16080E+00
:EFG015:                        EFG         =    -0.00033   *10**21  V / m**2
                               V20  TOT/SRF=     0.00026     0.00001
                               V22  TOT/SRF=    -0.00018    -0.00002
                               V22M TOT/SRF=     0.00000     0.00000
                               V21  TOT/SRF=     0.00000     0.00000
                               V21M TOT/SRF=     0.00000     0.00000

             -0.00033    0.00000    0.00000       -0.00033    0.00000    0.00000
              0.00000    0.00003    0.00000        0.00000    0.00003    0.00000
              0.00000    0.00000    0.00030        0.00000    0.00000    0.00030

         MAIN DIRECTIONS OF THE EFG   1.0000  0.0001  0.0000
                                     -0.0001  1.0000  0.0000
                                      0.0000  0.0000  1.0000
:ANG015:  ANGLE WITH OLD X-AXIS =         0.0

:ETA015:                         ASYMM. ETA =     0.81692


       ATOMNUMBER= 16 Na         VCOUL-ZERO =  0.16085E+00
:EFG016:                        EFG         =    -0.00021   *10**21  V / m**2
                               V20  TOT/SRF=     0.00005    -0.00002
                               V22  TOT/SRF=     0.00018     0.00002
                               V22M TOT/SRF=     0.00000     0.00000
                               V21  TOT/SRF=     0.00000     0.00000
                               V21M TOT/SRF=     0.00000     0.00000

              0.00015    0.00000    0.00000        0.00015    0.00000    0.00000
              0.00000   -0.00021    0.00000        0.00000   -0.00021    0.00000
              0.00000    0.00000    0.00006        0.00000    0.00000    0.00006

         MAIN DIRECTIONS OF THE EFG   1.0000 -0.0001  0.0000
                                      0.0001  1.0000  0.0000
                                      0.0000  0.0000  1.0000
:ANG016:  ANGLE WITH OLD X-AXIS =         0.0

:ETA016:                         ASYMM. ETA =     0.42236


       ATOMNUMBER= 17 Na         VCOUL-ZERO =  0.16082E+00
:EFG017:                        EFG         =    -0.00339   *10**21  V / m**2
                               V20  TOT/SRF=     0.00014     0.00000
                               V22  TOT/SRF=    -0.00003     0.00000
                               V22M TOT/SRF=    -0.00331    -0.00024
                               V21  TOT/SRF=     0.00000     0.00000
                               V21M TOT/SRF=     0.00000     0.00000

             -0.00011   -0.00331    0.00000       -0.00339    0.00000    0.00000
             -0.00331   -0.00005    0.00000        0.00000    0.00323    0.00000
              0.00000    0.00000    0.00017        0.00000    0.00000    0.00017

         MAIN DIRECTIONS OF THE EFG   1.0000 -0.9913  0.0000
                                      0.9913  1.0000  0.0000
                                      0.0000  0.0000  1.0000
:ANG017:  ANGLE WITH OLD X-AXIS =        44.7

:ETA017:                         ASYMM. ETA =     0.90244


       ATOMNUMBER= 18 Na         VCOUL-ZERO =  0.16082E+00
:EFG018:                        EFG         =     0.00018   *10**21  V / m**2
                               V20  TOT/SRF=     0.00015     0.00000
                               V22  TOT/SRF=     0.00000     0.00000
                               V22M TOT/SRF=    -0.00008    -0.00001
                               V21  TOT/SRF=     0.00000     0.00000
                               V21M TOT/SRF=     0.00000     0.00000

             -0.00009   -0.00008    0.00000       -0.00017    0.00000    0.00000
             -0.00008   -0.00009    0.00000        0.00000   -0.00001    0.00000
              0.00000    0.00000    0.00018        0.00000    0.00000    0.00018

         MAIN DIRECTIONS OF THE EFG   0.9983  1.0000  0.0000
                                      1.0000 -0.9983  0.0000
                                      0.0000  0.0000  1.0000
:ANG018:  ANGLE WITH OLD X-AXIS =        45.0

:ETA018:                         ASYMM. ETA =     0.92260


       ATOMNUMBER= 19 Na         VCOUL-ZERO =  0.16082E+00
:EFG019:                        EFG         =    -0.00341   *10**21  V / m**2
                               V20  TOT/SRF=     0.00014     0.00000
                               V22  TOT/SRF=    -0.00003     0.00000
                               V22M TOT/SRF=     0.00332     0.00024
                               V21  TOT/SRF=     0.00000     0.00000
                               V21M TOT/SRF=     0.00000     0.00000

             -0.00011    0.00332    0.00000       -0.00341    0.00000    0.00000
              0.00332   -0.00005    0.00000        0.00000    0.00324    0.00000
              0.00000    0.00000    0.00016        0.00000    0.00000    0.00016

         MAIN DIRECTIONS OF THE EFG   1.0000  0.9914  0.0000
                                     -0.9914  1.0000  0.0000
                                      0.0000  0.0000  1.0000
:ANG019:  ANGLE WITH OLD X-AXIS =        44.8

:ETA019:                         ASYMM. ETA =     0.90315


       ATOMNUMBER= 20 Na         VCOUL-ZERO =  0.16082E+00
:EFG020:                        EFG         =     0.00018   *10**21  V / m**2
                               V20  TOT/SRF=     0.00015     0.00000
                               V22  TOT/SRF=     0.00000     0.00000
                               V22M TOT/SRF=     0.00008     0.00001
                               V21  TOT/SRF=     0.00000     0.00000
                               V21M TOT/SRF=     0.00000     0.00000

             -0.00009    0.00008    0.00000       -0.00017    0.00000    0.00000
              0.00008   -0.00009    0.00000        0.00000   -0.00001    0.00000
              0.00000    0.00000    0.00018        0.00000    0.00000    0.00018

         MAIN DIRECTIONS OF THE EFG  -0.9980  1.0000  0.0000
                                      1.0000  0.9980  0.0000
                                      0.0000  0.0000  1.0000
:ANG020:  ANGLE WITH OLD X-AXIS =       134.9

:ETA020:                         ASYMM. ETA =     0.92921


       ATOMNUMBER= 21 Na         VCOUL-ZERO =  0.16082E+00
:EFG021:                        EFG         =     0.00018   *10**21  V / m**2
                               V20  TOT/SRF=     0.00016     0.00000
                               V22  TOT/SRF=     0.00000     0.00000
                               V22M TOT/SRF=    -0.00002     0.00000
                               V21  TOT/SRF=     0.00000     0.00000
                               V21M TOT/SRF=     0.00000     0.00000

             -0.00009   -0.00002    0.00000       -0.00011    0.00000    0.00000
             -0.00002   -0.00009    0.00000        0.00000   -0.00007    0.00000
              0.00000    0.00000    0.00018        0.00000    0.00000    0.00018

         MAIN DIRECTIONS OF THE EFG   1.0000 -0.9599  0.0000
                                      0.9599  1.0000  0.0000
                                      0.0000  0.0000  1.0000
:ANG021:  ANGLE WITH OLD X-AXIS =        43.8

:ETA021:                         ASYMM. ETA =     0.19884


       ATOMNUMBER= 22 Na         VCOUL-ZERO =  0.16082E+00
:EFG022:                        EFG         =     0.00018   *10**21  V / m**2
                               V20  TOT/SRF=     0.00015     0.00000
                               V22  TOT/SRF=     0.00000     0.00000
                               V22M TOT/SRF=     0.00002     0.00000
                               V21  TOT/SRF=     0.00000     0.00000
                               V21M TOT/SRF=     0.00000     0.00000

             -0.00009    0.00002    0.00000       -0.00010    0.00000    0.00000
              0.00002   -0.00009    0.00000        0.00000   -0.00007    0.00000
              0.00000    0.00000    0.00018        0.00000    0.00000    0.00018

         MAIN DIRECTIONS OF THE EFG  -0.9802  1.0000  0.0000
                                      1.0000  0.9802  0.0000
                                      0.0000  0.0000  1.0000
:ANG022:  ANGLE WITH OLD X-AXIS =       134.4

:ETA022:                         ASYMM. ETA =     0.18131


       ATOMNUMBER= 23 Na         VCOUL-ZERO =  0.16082E+00
:EFG023:                        EFG         =     0.00018   *10**21  V / m**2
                               V20  TOT/SRF=     0.00016     0.00000
                               V22  TOT/SRF=     0.00000     0.00000
                               V22M TOT/SRF=     0.00002     0.00000
                               V21  TOT/SRF=     0.00000     0.00000
                               V21M TOT/SRF=     0.00000     0.00000

             -0.00009    0.00002    0.00000       -0.00011    0.00000    0.00000
              0.00002   -0.00009    0.00000        0.00000   -0.00007    0.00000
              0.00000    0.00000    0.00018        0.00000    0.00000    0.00018

         MAIN DIRECTIONS OF THE EFG   1.0000  0.9596  0.0000
                                     -0.9596  1.0000  0.0000
                                      0.0000  0.0000  1.0000
:ANG023:  ANGLE WITH OLD X-AXIS =        43.8

:ETA023:                         ASYMM. ETA =     0.19854


       ATOMNUMBER= 24 Na         VCOUL-ZERO =  0.16082E+00
:EFG024:                        EFG         =     0.00018   *10**21  V / m**2
                               V20  TOT/SRF=     0.00015     0.00000
                               V22  TOT/SRF=     0.00000     0.00000
                               V22M TOT/SRF=    -0.00002     0.00000
                               V21  TOT/SRF=     0.00000     0.00000
                               V21M TOT/SRF=     0.00000     0.00000

             -0.00009   -0.00002    0.00000       -0.00010    0.00000    0.00000
             -0.00002   -0.00009    0.00000        0.00000   -0.00007    0.00000
              0.00000    0.00000    0.00018        0.00000    0.00000    0.00018

         MAIN DIRECTIONS OF THE EFG   0.9803  1.0000  0.0000
                                      1.0000 -0.9803  0.0000
                                      0.0000  0.0000  1.0000
:ANG024:  ANGLE WITH OLD X-AXIS =        45.6

:ETA024:                         ASYMM. ETA =     0.17997


       ATOMNUMBER= 25 Na         VCOUL-ZERO =  0.16082E+00
:EFG025:                        EFG         =     0.00337   *10**21  V / m**2
                               V20  TOT/SRF=     0.00018     0.00000
                               V22  TOT/SRF=    -0.00001     0.00000
                               V22M TOT/SRF=     0.00000     0.00000
                               V21  TOT/SRF=    -0.00332    -0.00024
                               V21M TOT/SRF=     0.00000     0.00000

             -0.00011    0.00000   -0.00332       -0.00327    0.00000    0.00000
              0.00000   -0.00010    0.00000        0.00000    0.00337    0.00000
             -0.00332    0.00000    0.00021        0.00000    0.00000   -0.00010

         MAIN DIRECTIONS OF THE EFG   1.0000 -0.9522  0.0000
                                      0.0003  0.0003  1.0000
                                      0.9522  1.0000 -0.0003
:ANG025:  ANGLE WITH OLD X-AXIS =        43.6

:ETA025:                         ASYMM. ETA =     0.93989


       ATOMNUMBER= 26 Na         VCOUL-ZERO =  0.16082E+00
:EFG026:                        EFG         =     0.00020   *10**21  V / m**2
                               V20  TOT/SRF=     0.00015     0.00000
                               V22  TOT/SRF=     0.00000     0.00000
                               V22M TOT/SRF=     0.00000     0.00000
                               V21  TOT/SRF=    -0.00008    -0.00001
                               V21M TOT/SRF=     0.00000     0.00000

             -0.00009    0.00000   -0.00008       -0.00011    0.00000    0.00000
              0.00000   -0.00009    0.00000        0.00000    0.00020    0.00000
             -0.00008    0.00000    0.00018        0.00000    0.00000   -0.00009

         MAIN DIRECTIONS OF THE EFG   1.0000 -0.2854  0.0108
                                     -0.0118 -0.0003  1.0000
                                      0.2854  1.0000  0.0034
:ANG026:  ANGLE WITH OLD X-AXIS =        15.9

:ETA026:                         ASYMM. ETA =     0.12216


       ATOMNUMBER= 27 Na         VCOUL-ZERO =  0.16082E+00
:EFG027:                        EFG         =     0.00018   *10**21  V / m**2
                               V20  TOT/SRF=     0.00015     0.00000
                               V22  TOT/SRF=     0.00000     0.00000
                               V22M TOT/SRF=     0.00000     0.00000
                               V21  TOT/SRF=    -0.00002     0.00000
                               V21M TOT/SRF=     0.00000     0.00000

             -0.00009    0.00000   -0.00002       -0.00009    0.00000    0.00000
              0.00000   -0.00009    0.00000        0.00000    0.00018    0.00000
             -0.00002    0.00000    0.00018        0.00000    0.00000   -0.00009

         MAIN DIRECTIONS OF THE EFG   1.0000 -0.0663 -0.0053
                                      0.0053  0.0000  1.0000
                                      0.0663  1.0000 -0.0004
:ANG027:  ANGLE WITH OLD X-AXIS =         3.8

:ETA027:                         ASYMM. ETA =     0.02782


       ATOMNUMBER= 28 Na         VCOUL-ZERO =  0.16082E+00
:EFG028:                        EFG         =     0.00018   *10**21  V / m**2
                               V20  TOT/SRF=     0.00015     0.00000
                               V22  TOT/SRF=     0.00000     0.00000
                               V22M TOT/SRF=     0.00000     0.00000
                               V21  TOT/SRF=     0.00002     0.00000
                               V21M TOT/SRF=     0.00000     0.00000

             -0.00009    0.00000    0.00002        0.00018    0.00000    0.00000
              0.00000   -0.00009    0.00000        0.00000   -0.00009    0.00000
              0.00002    0.00000    0.00018        0.00000    0.00000   -0.00009

         MAIN DIRECTIONS OF THE EFG   0.0599  1.0000 -0.8151
                                      0.0000  0.8180  1.0000
                                      1.0000 -0.0599  0.0488
:ANG028:  ANGLE WITH OLD X-AXIS =        87.3

:ETA028:                         ASYMM. ETA =     0.00068


       ATOMNUMBER= 29 Na         VCOUL-ZERO =  0.16082E+00
:EFG029:                        EFG         =     0.00337   *10**21  V / m**2
                               V20  TOT/SRF=     0.00018     0.00000
                               V22  TOT/SRF=    -0.00001     0.00000
                               V22M TOT/SRF=     0.00000     0.00000
                               V21  TOT/SRF=     0.00332     0.00024
                               V21M TOT/SRF=     0.00000     0.00000

             -0.00011    0.00000    0.00332       -0.00327    0.00000    0.00000
              0.00000   -0.00010    0.00000        0.00000    0.00337    0.00000
              0.00332    0.00000    0.00021        0.00000    0.00000   -0.00010

         MAIN DIRECTIONS OF THE EFG   1.0000  0.9522  0.0000
                                      0.0003 -0.0003  1.0000
                                     -0.9522  1.0000  0.0003
:ANG029:  ANGLE WITH OLD X-AXIS =        43.6

:ETA029:                         ASYMM. ETA =     0.93989


       ATOMNUMBER= 30 Na         VCOUL-ZERO =  0.16082E+00
:EFG030:                        EFG         =     0.00020   *10**21  V / m**2
                               V20  TOT/SRF=     0.00015     0.00000
                               V22  TOT/SRF=     0.00000     0.00000
                               V22M TOT/SRF=     0.00000     0.00000
                               V21  TOT/SRF=     0.00008     0.00001
                               V21M TOT/SRF=     0.00000     0.00000

             -0.00009    0.00000    0.00008       -0.00011    0.00000    0.00000
              0.00000   -0.00009    0.00000        0.00000    0.00020    0.00000
              0.00008    0.00000    0.00018        0.00000    0.00000   -0.00009

         MAIN DIRECTIONS OF THE EFG   1.0000  0.2854  0.0106
                                     -0.0116  0.0003  1.0000
                                     -0.2854  1.0000 -0.0033
:ANG030:  ANGLE WITH OLD X-AXIS =        15.9

:ETA030:                         ASYMM. ETA =     0.12216


       ATOMNUMBER= 31 Na         VCOUL-ZERO =  0.16082E+00
:EFG031:                        EFG         =     0.00018   *10**21  V / m**2
                               V20  TOT/SRF=     0.00015     0.00000
                               V22  TOT/SRF=     0.00000     0.00000
                               V22M TOT/SRF=     0.00000     0.00000
                               V21  TOT/SRF=     0.00002     0.00000
                               V21M TOT/SRF=     0.00000     0.00000

             -0.00009    0.00000    0.00002       -0.00009    0.00000    0.00000
              0.00000   -0.00009    0.00000        0.00000    0.00018    0.00000
              0.00002    0.00000    0.00018        0.00000    0.00000   -0.00009

         MAIN DIRECTIONS OF THE EFG   1.0000  0.0663 -0.0063
                                      0.0064  0.0000  1.0000
                                     -0.0663  1.0000  0.0004
:ANG031:  ANGLE WITH OLD X-AXIS =         3.8

:ETA031:                         ASYMM. ETA =     0.02782


       ATOMNUMBER= 32 Na         VCOUL-ZERO =  0.16082E+00
:EFG032:                        EFG         =     0.00018   *10**21  V / m**2
                               V20  TOT/SRF=     0.00015     0.00000
                               V22  TOT/SRF=     0.00000     0.00000
                               V22M TOT/SRF=     0.00000     0.00000
                               V21  TOT/SRF=    -0.00002     0.00000
                               V21M TOT/SRF=     0.00000     0.00000

             -0.00009    0.00000   -0.00002        0.00018    0.00000    0.00000
              0.00000   -0.00009    0.00000        0.00000   -0.00009    0.00000
             -0.00002    0.00000    0.00018        0.00000    0.00000   -0.00009

         MAIN DIRECTIONS OF THE EFG  -0.0599 -0.8283  1.0000
                                      0.0000  1.0000  0.8313
                                      1.0000 -0.0496  0.0599
:ANG032:  ANGLE WITH OLD X-AXIS =        92.6

:ETA032:                         ASYMM. ETA =     0.00073


       ATOMNUMBER= 33 Cl         VCOUL-ZERO =  0.24802E+00
:EFG033:                        EFG         =     0.00087   *10**21  V / m**2
                               V20  TOT/SRF=     0.00075    -0.00002
                               V22  TOT/SRF=    -0.00032     0.00003
                               V22M TOT/SRF=    -0.00005     0.00000
                               V21  TOT/SRF=     0.00000     0.00000
                               V21M TOT/SRF=     0.00000     0.00000

             -0.00076   -0.00005    0.00000       -0.00076    0.00000    0.00000
             -0.00005   -0.00011    0.00000        0.00000   -0.00010    0.00000
              0.00000    0.00000    0.00087        0.00000    0.00000    0.00087

         MAIN DIRECTIONS OF THE EFG   1.0000 -0.0779 -0.0001
                                      0.0779  1.0000  0.0001
                                      0.0001 -0.0001  1.0000
:ANG033:  ANGLE WITH OLD X-AXIS =         4.5

:ETA033:                         ASYMM. ETA =     0.75848


       ATOMNUMBER= 34 Cl         VCOUL-ZERO =  0.24803E+00
:EFG034:                        EFG         =     0.00062   *10**21  V / m**2
                               V20  TOT/SRF=     0.00054     0.00000
                               V22  TOT/SRF=     0.00005     0.00000
                               V22M TOT/SRF=     0.00000     0.00000
                               V21  TOT/SRF=     0.00000     0.00000
                               V21M TOT/SRF=     0.00000     0.00000

             -0.00026    0.00000    0.00000       -0.00026    0.00000    0.00000
              0.00000   -0.00036    0.00000        0.00000   -0.00036    0.00000
              0.00000    0.00000    0.00062        0.00000    0.00000    0.00062

         MAIN DIRECTIONS OF THE EFG   1.0000  0.0099  0.0000
                                     -0.0099  1.0000  0.0000
                                      0.0000  0.0000  1.0000
:ANG034:  ANGLE WITH OLD X-AXIS =         0.6

:ETA034:                         ASYMM. ETA =     0.16224


       ATOMNUMBER= 35 Cl         VCOUL-ZERO =  0.24803E+00
:EFG035:                        EFG         =     0.00063   *10**21  V / m**2
                               V20  TOT/SRF=     0.00055     0.00000
                               V22  TOT/SRF=     0.00002     0.00000
                               V22M TOT/SRF=     0.00000     0.00000
                               V21  TOT/SRF=     0.00000     0.00000
                               V21M TOT/SRF=     0.00000     0.00000

             -0.00029    0.00000    0.00000       -0.00029    0.00000    0.00000
              0.00000   -0.00034    0.00000        0.00000   -0.00034    0.00000
              0.00000    0.00000    0.00063        0.00000    0.00000    0.00063

         MAIN DIRECTIONS OF THE EFG   1.0000  0.0056  0.0000
                                     -0.0056  1.0000  0.0000
                                      0.0000  0.0000  1.0000
:ANG035:  ANGLE WITH OLD X-AXIS =         0.3

:ETA035:                         ASYMM. ETA =     0.07092


       ATOMNUMBER= 36 Cl         VCOUL-ZERO =  0.24803E+00
:EFG036:                        EFG         =     0.00064   *10**21  V / m**2
                               V20  TOT/SRF=     0.00055     0.00000
                               V22  TOT/SRF=     0.00003     0.00000
                               V22M TOT/SRF=     0.00000     0.00000
                               V21  TOT/SRF=     0.00000     0.00000
                               V21M TOT/SRF=     0.00000     0.00000

             -0.00029    0.00000    0.00000       -0.00029    0.00000    0.00000
              0.00000   -0.00035    0.00000        0.00000   -0.00035    0.00000
              0.00000    0.00000    0.00064        0.00000    0.00000    0.00064

         MAIN DIRECTIONS OF THE EFG   1.0000  0.0122  0.0000
                                     -0.0122  1.0000  0.0000
                                      0.0000  0.0000  1.0000
:ANG036:  ANGLE WITH OLD X-AXIS =         0.7

:ETA036:                         ASYMM. ETA =     0.09755


       ATOMNUMBER= 37 Cl         VCOUL-ZERO =  0.24803E+00
:EFG037:                        EFG         =     0.00064   *10**21  V / m**2
                               V20  TOT/SRF=     0.00056     0.00000
                               V22  TOT/SRF=     0.00003     0.00000
                               V22M TOT/SRF=     0.00000     0.00000
                               V21  TOT/SRF=     0.00000     0.00000
                               V21M TOT/SRF=     0.00000     0.00000

             -0.00029    0.00000    0.00000       -0.00029    0.00000    0.00000
              0.00000   -0.00035    0.00000        0.00000   -0.00035    0.00000
              0.00000    0.00000    0.00064        0.00000    0.00000    0.00064

         MAIN DIRECTIONS OF THE EFG   1.0000 -0.0087  0.0000
                                      0.0087  1.0000  0.0000
                                      0.0000  0.0000  1.0000
:ANG037:  ANGLE WITH OLD X-AXIS =         0.5

:ETA037:                         ASYMM. ETA =     0.08085


       ATOMNUMBER= 38 Cl         VCOUL-ZERO =  0.24803E+00
:EFG038:                        EFG         =     0.00063   *10**21  V / m**2
                               V20  TOT/SRF=     0.00055     0.00000
                               V22  TOT/SRF=     0.00003     0.00000
                               V22M TOT/SRF=     0.00000     0.00000
                               V21  TOT/SRF=     0.00000     0.00000
                               V21M TOT/SRF=     0.00000     0.00000

             -0.00029    0.00000    0.00000       -0.00029    0.00000    0.00000
              0.00000   -0.00035    0.00000        0.00000   -0.00035    0.00000
              0.00000    0.00000    0.00063        0.00000    0.00000    0.00063

         MAIN DIRECTIONS OF THE EFG   1.0000  0.0092  0.0000
                                     -0.0092  1.0000  0.0000
                                      0.0000  0.0000  1.0000
:ANG038:  ANGLE WITH OLD X-AXIS =         0.5

:ETA038:                         ASYMM. ETA =     0.09210


       ATOMNUMBER= 39 Cl         VCOUL-ZERO =  0.24803E+00
:EFG039:                        EFG         =     0.00066   *10**21  V / m**2
                               V20  TOT/SRF=     0.00057     0.00000
                               V22  TOT/SRF=     0.00000     0.00000
                               V22M TOT/SRF=     0.00000     0.00000
                               V21  TOT/SRF=     0.00000     0.00000
                               V21M TOT/SRF=     0.00000     0.00000

             -0.00033    0.00000    0.00000       -0.00033    0.00000    0.00000
              0.00000   -0.00032    0.00000        0.00000    0.00066    0.00000
              0.00000    0.00000    0.00066        0.00000    0.00000   -0.00032

         MAIN DIRECTIONS OF THE EFG   1.0000  0.0000 -0.0039
                                      0.0039  0.0000  1.0000
                                      0.0000  1.0000  0.0000
:ANG039:  ANGLE WITH OLD X-AXIS =         0.2

:ETA039:                         ASYMM. ETA =     0.01032


       ATOMNUMBER= 40 Cl         VCOUL-ZERO =  0.24803E+00
:EFG040:                        EFG         =     0.00065   *10**21  V / m**2
                               V20  TOT/SRF=     0.00057     0.00000
                               V22  TOT/SRF=     0.00000     0.00000
                               V22M TOT/SRF=     0.00000     0.00000
                               V21  TOT/SRF=     0.00000     0.00000
                               V21M TOT/SRF=     0.00000     0.00000

             -0.00033    0.00000    0.00000       -0.00033    0.00000    0.00000
              0.00000   -0.00033    0.00000        0.00000   -0.00033    0.00000
              0.00000    0.00000    0.00065        0.00000    0.00000    0.00065

         MAIN DIRECTIONS OF THE EFG   1.0000  0.0324  0.0000
                                     -0.0324  1.0000  0.0000
                                      0.0000  0.0000  1.0000
:ANG040:  ANGLE WITH OLD X-AXIS =         1.9

:ETA040:                         ASYMM. ETA =     0.00401


       ATOMNUMBER= 41 Cl         VCOUL-ZERO =  0.24803E+00
:EFG041:                        EFG         =    -0.00399   *10**21  V / m**2
                               V20  TOT/SRF=     0.00056     0.00000
                               V22  TOT/SRF=     0.00002     0.00000
                               V22M TOT/SRF=    -0.00275    -0.00004
                               V21  TOT/SRF=    -0.00275    -0.00004
                               V21M TOT/SRF=     0.00002     0.00000

             -0.00031   -0.00275   -0.00275       -0.00399    0.00000    0.00000
             -0.00275   -0.00034    0.00002        0.00000    0.00386    0.00000
             -0.00275    0.00002    0.00064        0.00000    0.00000    0.00013

         MAIN DIRECTIONS OF THE EFG   1.0000  1.0000 -0.1757
                                      0.7494 -0.6587  1.0000
                                      0.5901 -0.8581 -0.9723
:ANG041:  ANGLE WITH OLD X-AXIS =        45.4

:ETA041:                         ASYMM. ETA =     0.93729


       ATOMNUMBER= 42 Cl         VCOUL-ZERO =  0.24803E+00
:EFG042:                        EFG         =    -0.00140   *10**21  V / m**2
                               V20  TOT/SRF=     0.00055     0.00000
                               V22  TOT/SRF=     0.00003     0.00000
                               V22M TOT/SRF=     0.00088     0.00001
                               V21  TOT/SRF=     0.00088     0.00001
                               V21M TOT/SRF=     0.00000     0.00000

             -0.00028    0.00088    0.00088       -0.00140    0.00000    0.00000
              0.00088   -0.00035    0.00000        0.00000    0.00132    0.00000
              0.00088    0.00000    0.00063        0.00000    0.00000    0.00009

         MAIN DIRECTIONS OF THE EFG   1.0000  0.7764  0.4920
                                     -0.8354  0.4110  1.0000
                                     -0.4330  1.0000 -0.7930
:ANG042:  ANGLE WITH OLD X-AXIS =        42.6

:ETA042:                         ASYMM. ETA =     0.87817


       ATOMNUMBER= 43 Cl         VCOUL-ZERO =  0.24803E+00
:EFG043:                        EFG         =    -0.00399   *10**21  V / m**2
                               V20  TOT/SRF=     0.00056     0.00000
                               V22  TOT/SRF=     0.00002     0.00000
                               V22M TOT/SRF=     0.00275     0.00004
                               V21  TOT/SRF=    -0.00275    -0.00004
                               V21M TOT/SRF=    -0.00002     0.00000

             -0.00031    0.00275   -0.00275       -0.00399    0.00000    0.00000
              0.00275   -0.00034   -0.00002        0.00000    0.00387    0.00000
             -0.00275   -0.00002    0.00064        0.00000    0.00000    0.00013

         MAIN DIRECTIONS OF THE EFG   1.0000  1.0000  0.1757
                                     -0.7496  0.6589  1.0000
                                      0.5899 -0.8579  0.9730
:ANG043:  ANGLE WITH OLD X-AXIS =        45.4

:ETA043:                         ASYMM. ETA =     0.93713


       ATOMNUMBER= 44 Cl         VCOUL-ZERO =  0.24803E+00
:EFG044:                        EFG         =    -0.00140   *10**21  V / m**2
                               V20  TOT/SRF=     0.00055     0.00000
                               V22  TOT/SRF=     0.00003     0.00000
                               V22M TOT/SRF=    -0.00088    -0.00001
                               V21  TOT/SRF=     0.00088     0.00001
                               V21M TOT/SRF=     0.00000     0.00000

             -0.00028   -0.00088    0.00088       -0.00140    0.00000    0.00000
             -0.00088   -0.00035    0.00000        0.00000    0.00132    0.00000
              0.00088    0.00000    0.00063        0.00000    0.00000    0.00009

         MAIN DIRECTIONS OF THE EFG   1.0000  0.7768 -0.4921
                                      0.8357 -0.4116  1.0000
                                     -0.4328  1.0000  0.7938
:ANG044:  ANGLE WITH OLD X-AXIS =        42.6

:ETA044:                         ASYMM. ETA =     0.87748


       ATOMNUMBER= 45 Cl         VCOUL-ZERO =  0.24803E+00
:EFG045:                        EFG         =    -0.00399   *10**21  V / m**2
                               V20  TOT/SRF=     0.00056     0.00000
                               V22  TOT/SRF=     0.00002     0.00000
                               V22M TOT/SRF=    -0.00275    -0.00004
                               V21  TOT/SRF=     0.00275     0.00004
                               V21M TOT/SRF=    -0.00002     0.00000

             -0.00031   -0.00275    0.00275       -0.00399    0.00000    0.00000
             -0.00275   -0.00034   -0.00002        0.00000    0.00386    0.00000
              0.00275   -0.00002    0.00064        0.00000    0.00000    0.00013

         MAIN DIRECTIONS OF THE EFG   1.0000  1.0000 -0.1757
                                      0.7494 -0.6587  1.0000
                                     -0.5901  0.8581  0.9723
:ANG045:  ANGLE WITH OLD X-AXIS =        45.4

:ETA045:                         ASYMM. ETA =     0.93729


       ATOMNUMBER= 46 Cl         VCOUL-ZERO =  0.24803E+00
:EFG046:                        EFG         =    -0.00140   *10**21  V / m**2
                               V20  TOT/SRF=     0.00055     0.00000
                               V22  TOT/SRF=     0.00003     0.00000
                               V22M TOT/SRF=     0.00088     0.00001
                               V21  TOT/SRF=    -0.00088    -0.00001
                               V21M TOT/SRF=     0.00000     0.00000

             -0.00028    0.00088   -0.00088       -0.00140    0.00000    0.00000
              0.00088   -0.00035    0.00000        0.00000    0.00132    0.00000
             -0.00088    0.00000    0.00063        0.00000    0.00000    0.00009

         MAIN DIRECTIONS OF THE EFG   1.0000 -0.7764  0.4920
                                     -0.8354 -0.4110  1.0000
                                      0.4330  1.0000  0.7930
:ANG046:  ANGLE WITH OLD X-AXIS =        42.6

:ETA046:                         ASYMM. ETA =     0.87817


       ATOMNUMBER= 47 Cl         VCOUL-ZERO =  0.24803E+00
:EFG047:                        EFG         =    -0.00399   *10**21  V / m**2
                               V20  TOT/SRF=     0.00056     0.00000
                               V22  TOT/SRF=     0.00002     0.00000
                               V22M TOT/SRF=     0.00275     0.00004
                               V21  TOT/SRF=     0.00275     0.00004
                               V21M TOT/SRF=     0.00002     0.00000

             -0.00031    0.00275    0.00275       -0.00399    0.00000    0.00000
              0.00275   -0.00034    0.00002        0.00000    0.00387    0.00000
              0.00275    0.00002    0.00064        0.00000    0.00000    0.00013

         MAIN DIRECTIONS OF THE EFG   1.0000  1.0000  0.1757
                                     -0.7496  0.6589  1.0000
                                     -0.5899  0.8579 -0.9730
:ANG047:  ANGLE WITH OLD X-AXIS =        45.4

:ETA047:                         ASYMM. ETA =     0.93713


       ATOMNUMBER= 48 Cl         VCOUL-ZERO =  0.24803E+00
:EFG048:                        EFG         =    -0.00140   *10**21  V / m**2
                               V20  TOT/SRF=     0.00055     0.00000
                               V22  TOT/SRF=     0.00003     0.00000
                               V22M TOT/SRF=    -0.00088    -0.00001
                               V21  TOT/SRF=    -0.00088    -0.00001
                               V21M TOT/SRF=     0.00000     0.00000

             -0.00028   -0.00088   -0.00088       -0.00140    0.00000    0.00000
             -0.00088   -0.00035    0.00000        0.00000    0.00132    0.00000
             -0.00088    0.00000    0.00063        0.00000    0.00000    0.00009

         MAIN DIRECTIONS OF THE EFG   1.0000 -0.7768 -0.4921
                                      0.8357  0.4116  1.0000
                                      0.4328  1.0000 -0.7938
:ANG048:  ANGLE WITH OLD X-AXIS =        42.6

:ETA048:                         ASYMM. ETA =     0.87748


       ATOMNUMBER= 49 Cl         VCOUL-ZERO =  0.24783E+00
:EFG049:                        EFG         =     0.01225   *10**21  V / m**2
                               V20  TOT/SRF=     0.00627     0.00007
                               V22  TOT/SRF=     0.00224     0.00002
                               V22M TOT/SRF=     0.00000     0.00000
                               V21  TOT/SRF=     0.00826     0.00009
                               V21M TOT/SRF=     0.00000     0.00000

             -0.00139    0.00000    0.00826        0.01225    0.00000    0.00000
              0.00000   -0.00586    0.00000        0.00000   -0.00639    0.00000
              0.00826    0.00000    0.00725        0.00000    0.00000   -0.00586

         MAIN DIRECTIONS OF THE EFG   0.6060  1.0000  0.0010
                                      0.0000 -0.0014  1.0000
                                      1.0000 -0.6060 -0.0006
:ANG049:  ANGLE WITH OLD X-AXIS =        58.8

:ETA049:                         ASYMM. ETA =     0.04360


       ATOMNUMBER= 50 Cl         VCOUL-ZERO =  0.24822E+00
:EFG050:                        EFG         =    -0.01155   *10**21  V / m**2
                               V20  TOT/SRF=    -0.00512    -0.00007
                               V22  TOT/SRF=    -0.00230    -0.00002
                               V22M TOT/SRF=     0.00000     0.00000
                               V21  TOT/SRF=     0.00829     0.00009
                               V21M TOT/SRF=     0.00000     0.00000

              0.00066    0.00000    0.00829       -0.01155    0.00000    0.00000
              0.00000    0.00526    0.00000        0.00000    0.00629    0.00000
              0.00829    0.00000   -0.00591        0.00000    0.00000    0.00526

         MAIN DIRECTIONS OF THE EFG  -0.6795  1.0000 -0.0005
                                      0.0000  0.0008  1.0000
                                      1.0000  0.6795 -0.0004
:ANG050:  ANGLE WITH OLD X-AXIS =       124.2

:ETA050:                         ASYMM. ETA =     0.08954


       ATOMNUMBER= 51 Cl         VCOUL-ZERO =  0.24799E+00
:EFG051:                        EFG         =    -0.00160   *10**21  V / m**2
                               V20  TOT/SRF=     0.00113     0.00001
                               V22  TOT/SRF=    -0.00095    -0.00002
                               V22M TOT/SRF=     0.00000     0.00000
                               V21  TOT/SRF=    -0.00004     0.00000
                               V21M TOT/SRF=     0.00000     0.00000

             -0.00160    0.00000   -0.00004       -0.00160    0.00000    0.00000
              0.00000    0.00030    0.00000        0.00000    0.00130    0.00000
             -0.00004    0.00000    0.00130        0.00000    0.00000    0.00030

         MAIN DIRECTIONS OF THE EFG   1.0000 -0.0128  0.0000
                                      0.0000  0.0000  1.0000
                                      0.0128  1.0000  0.0000
:ANG051:  ANGLE WITH OLD X-AXIS =         0.7

:ETA051:                         ASYMM. ETA =     0.62545


       ATOMNUMBER= 52 Cl         VCOUL-ZERO =  0.24807E+00
:EFG052:                        EFG         =    -0.00089   *10**21  V / m**2
                               V20  TOT/SRF=     0.00001    -0.00001
                               V22  TOT/SRF=     0.00089     0.00002
                               V22M TOT/SRF=     0.00000     0.00000
                               V21  TOT/SRF=    -0.00004     0.00000
                               V21M TOT/SRF=     0.00000     0.00000

              0.00088    0.00000   -0.00004        0.00088    0.00000    0.00000
              0.00000   -0.00089    0.00000        0.00000    0.00001    0.00000
             -0.00004    0.00000    0.00001        0.00000    0.00000   -0.00089

         MAIN DIRECTIONS OF THE EFG   1.0000  0.0430  0.0000
                                      0.0000  0.0000  1.0000
                                     -0.0430  1.0000  0.0000
:ANG052:  ANGLE WITH OLD X-AXIS =         2.5

:ETA052:                         ASYMM. ETA =     0.98632


       ATOMNUMBER= 53 Cl         VCOUL-ZERO =  0.24783E+00
:EFG053:                        EFG         =     0.01225   *10**21  V / m**2
                               V20  TOT/SRF=     0.00627     0.00007
                               V22  TOT/SRF=     0.00224     0.00002
                               V22M TOT/SRF=     0.00000     0.00000
                               V21  TOT/SRF=    -0.00826    -0.00009
                               V21M TOT/SRF=     0.00000     0.00000

             -0.00139    0.00000   -0.00826        0.01225    0.00000    0.00000
              0.00000   -0.00586    0.00000        0.00000   -0.00639    0.00000
             -0.00826    0.00000    0.00725        0.00000    0.00000   -0.00586

         MAIN DIRECTIONS OF THE EFG  -0.6060  1.0000  0.0010
                                      0.0000 -0.0014  1.0000
                                      1.0000  0.6060  0.0006
:ANG053:  ANGLE WITH OLD X-AXIS =       121.2

:ETA053:                         ASYMM. ETA =     0.04360


       ATOMNUMBER= 54 Cl         VCOUL-ZERO =  0.24822E+00
:EFG054:                        EFG         =    -0.01155   *10**21  V / m**2
                               V20  TOT/SRF=    -0.00512    -0.00007
                               V22  TOT/SRF=    -0.00230    -0.00002
                               V22M TOT/SRF=     0.00000     0.00000
                               V21  TOT/SRF=    -0.00829    -0.00009
                               V21M TOT/SRF=     0.00000     0.00000

              0.00066    0.00000   -0.00829       -0.01155    0.00000    0.00000
              0.00000    0.00526    0.00000        0.00000    0.00629    0.00000
             -0.00829    0.00000   -0.00591        0.00000    0.00000    0.00526

         MAIN DIRECTIONS OF THE EFG   0.6795  1.0000 -0.0005
                                      0.0000  0.0008  1.0000
                                      1.0000 -0.6795  0.0004
:ANG054:  ANGLE WITH OLD X-AXIS =        55.8

:ETA054:                         ASYMM. ETA =     0.08954


       ATOMNUMBER= 55 Cl         VCOUL-ZERO =  0.24799E+00
:EFG055:                        EFG         =    -0.00160   *10**21  V / m**2
                               V20  TOT/SRF=     0.00113     0.00001
                               V22  TOT/SRF=    -0.00095    -0.00002
                               V22M TOT/SRF=     0.00000     0.00000
                               V21  TOT/SRF=     0.00004     0.00000
                               V21M TOT/SRF=     0.00000     0.00000

             -0.00160    0.00000    0.00004       -0.00160    0.00000    0.00000
              0.00000    0.00030    0.00000        0.00000    0.00130    0.00000
              0.00004    0.00000    0.00130        0.00000    0.00000    0.00030

         MAIN DIRECTIONS OF THE EFG   1.0000  0.0128  0.0000
                                      0.0000  0.0000  1.0000
                                     -0.0128  1.0000  0.0000
:ANG055:  ANGLE WITH OLD X-AXIS =         0.7

:ETA055:                         ASYMM. ETA =     0.62545


       ATOMNUMBER= 56 Cl         VCOUL-ZERO =  0.24807E+00
:EFG056:                        EFG         =    -0.00089   *10**21  V / m**2
                               V20  TOT/SRF=     0.00001    -0.00001
                               V22  TOT/SRF=     0.00089     0.00002
                               V22M TOT/SRF=     0.00000     0.00000
                               V21  TOT/SRF=     0.00004     0.00000
                               V21M TOT/SRF=     0.00000     0.00000

              0.00088    0.00000    0.00004        0.00088    0.00000    0.00000
              0.00000   -0.00089    0.00000        0.00000    0.00001    0.00000
              0.00004    0.00000    0.00001        0.00000    0.00000   -0.00089

         MAIN DIRECTIONS OF THE EFG   1.0000 -0.0430  0.0000
                                      0.0000  0.0000  1.0000
                                      0.0430  1.0000  0.0000
:ANG056:  ANGLE WITH OLD X-AXIS =         2.5

:ETA056:                         ASYMM. ETA =     0.98632


       ATOMNUMBER= 57 Cl         VCOUL-ZERO =  0.24783E+00
:EFG057:                        EFG         =     0.01152   *10**21  V / m**2
                               V20  TOT/SRF=    -0.00422    -0.00005
                               V22  TOT/SRF=    -0.00382    -0.00005
                               V22M TOT/SRF=     0.00825     0.00009
                               V21  TOT/SRF=     0.00000     0.00000
                               V21M TOT/SRF=     0.00000     0.00000

             -0.00139    0.00825    0.00000        0.01152    0.00000    0.00000
              0.00825    0.00626    0.00000        0.00000   -0.00666    0.00000
              0.00000    0.00000   -0.00487        0.00000    0.00000   -0.00487

         MAIN DIRECTIONS OF THE EFG   0.6388  1.0000  0.0000
                                      1.0000 -0.6388  0.0000
                                      0.0000  0.0000  1.0000
:ANG057:  ANGLE WITH OLD X-AXIS =        57.4

:ETA057:                         ASYMM. ETA =     0.15523


       ATOMNUMBER= 58 Cl         VCOUL-ZERO =  0.24822E+00
:EFG058:                        EFG         =    -0.01221   *10**21  V / m**2
                               V20  TOT/SRF=     0.00539     0.00005
                               V22  TOT/SRF=     0.00377     0.00005
                               V22M TOT/SRF=     0.00828     0.00009
                               V21  TOT/SRF=     0.00000     0.00000
                               V21M TOT/SRF=     0.00000     0.00000

              0.00066    0.00828    0.00000       -0.01221    0.00000    0.00000
              0.00828   -0.00689    0.00000        0.00000    0.00598    0.00000
              0.00000    0.00000    0.00623        0.00000    0.00000    0.00623

         MAIN DIRECTIONS OF THE EFG  -0.6433  1.0000  0.0000
                                      1.0000  0.6433  0.0000
                                      0.0000  0.0000  1.0000
:ANG058:  ANGLE WITH OLD X-AXIS =       122.8

:ETA058:                         ASYMM. ETA =     0.02008


       ATOMNUMBER= 59 Cl         VCOUL-ZERO =  0.24783E+00
:EFG059:                        EFG         =     0.01154   *10**21  V / m**2
                               V20  TOT/SRF=    -0.00422    -0.00005
                               V22  TOT/SRF=    -0.00383    -0.00005
                               V22M TOT/SRF=    -0.00826    -0.00009
                               V21  TOT/SRF=     0.00000     0.00000
                               V21M TOT/SRF=     0.00000     0.00000

             -0.00139   -0.00826    0.00000        0.01154    0.00000    0.00000
             -0.00826    0.00627    0.00000        0.00000   -0.00667    0.00000
              0.00000    0.00000   -0.00487        0.00000    0.00000   -0.00487

         MAIN DIRECTIONS OF THE EFG  -0.6386  1.0000  0.0000
                                      1.0000  0.6386  0.0000
                                      0.0000  0.0000  1.0000
:ANG059:  ANGLE WITH OLD X-AXIS =       122.6

:ETA059:                         ASYMM. ETA =     0.15557


       ATOMNUMBER= 60 Cl         VCOUL-ZERO =  0.24822E+00
:EFG060:                        EFG         =    -0.01223   *10**21  V / m**2
                               V20  TOT/SRF=     0.00540     0.00005
                               V22  TOT/SRF=     0.00378     0.00005
                               V22M TOT/SRF=    -0.00829    -0.00009
                               V21  TOT/SRF=     0.00000     0.00000
                               V21M TOT/SRF=     0.00000     0.00000

              0.00067   -0.00829    0.00000       -0.01223    0.00000    0.00000
             -0.00829   -0.00690    0.00000        0.00000    0.00600    0.00000
              0.00000    0.00000    0.00623        0.00000    0.00000    0.00623

         MAIN DIRECTIONS OF THE EFG   0.6429  1.0000  0.0000
                                      1.0000 -0.6429  0.0000
                                      0.0000  0.0000  1.0000
:ANG060:  ANGLE WITH OLD X-AXIS =        57.3

:ETA060:                         ASYMM. ETA =     0.01941


       ATOMNUMBER= 61 Cl         VCOUL-ZERO =  0.24799E+00
:EFG061:                        EFG         =    -0.00160   *10**21  V / m**2
                               V20  TOT/SRF=     0.00111     0.00001
                               V22  TOT/SRF=    -0.00096    -0.00001
                               V22M TOT/SRF=    -0.00004     0.00000
                               V21  TOT/SRF=     0.00000     0.00000
                               V21M TOT/SRF=     0.00000     0.00000

             -0.00160   -0.00004    0.00000       -0.00160    0.00000    0.00000
             -0.00004    0.00032    0.00000        0.00000    0.00032    0.00000
              0.00000    0.00000    0.00128        0.00000    0.00000    0.00128

         MAIN DIRECTIONS OF THE EFG   1.0000 -0.0194  0.0000
                                      0.0194  1.0000  0.0000
                                      0.0000  0.0000  1.0000
:ANG061:  ANGLE WITH OLD X-AXIS =         1.1

:ETA061:                         ASYMM. ETA =     0.60095


       ATOMNUMBER= 62 Cl         VCOUL-ZERO =  0.24807E+00
:EFG062:                        EFG         =    -0.00097   *10**21  V / m**2
                               V20  TOT/SRF=     0.00008    -0.00001
                               V22  TOT/SRF=     0.00093     0.00002
                               V22M TOT/SRF=    -0.00004     0.00000
                               V21  TOT/SRF=     0.00000     0.00000
                               V21M TOT/SRF=     0.00000     0.00000

              0.00088   -0.00004    0.00000        0.00088    0.00000    0.00000
             -0.00004   -0.00097    0.00000        0.00000   -0.00097    0.00000
              0.00000    0.00000    0.00009        0.00000    0.00000    0.00009

         MAIN DIRECTIONS OF THE EFG   1.0000  0.0204  0.0000
                                     -0.0204  1.0000  0.0000
                                      0.0000  0.0000  1.0000
:ANG062:  ANGLE WITH OLD X-AXIS =         1.2

:ETA062:                         ASYMM. ETA =     0.81448


       ATOMNUMBER= 63 Cl         VCOUL-ZERO =  0.24799E+00
:EFG063:                        EFG         =    -0.00160   *10**21  V / m**2
                               V20  TOT/SRF=     0.00111     0.00001
                               V22  TOT/SRF=    -0.00096    -0.00001
                               V22M TOT/SRF=     0.00004     0.00000
                               V21  TOT/SRF=     0.00000     0.00000
                               V21M TOT/SRF=     0.00000     0.00000

             -0.00160    0.00004    0.00000       -0.00160    0.00000    0.00000
              0.00004    0.00032    0.00000        0.00000    0.00032    0.00000
              0.00000    0.00000    0.00128        0.00000    0.00000    0.00128

         MAIN DIRECTIONS OF THE EFG   1.0000  0.0193  0.0000
                                     -0.0193  1.0000  0.0000
                                      0.0000  0.0000  1.0000
:ANG063:  ANGLE WITH OLD X-AXIS =         1.1

:ETA063:                         ASYMM. ETA =     0.60087


       ATOMNUMBER= 64 Cl         VCOUL-ZERO =  0.24807E+00
:EFG064:                        EFG         =    -0.00097   *10**21  V / m**2
                               V20  TOT/SRF=     0.00008    -0.00001
                               V22  TOT/SRF=     0.00093     0.00002
                               V22M TOT/SRF=     0.00004     0.00000
                               V21  TOT/SRF=     0.00000     0.00000
                               V21M TOT/SRF=     0.00000     0.00000

              0.00088    0.00004    0.00000        0.00088    0.00000    0.00000
              0.00004   -0.00097    0.00000        0.00000   -0.00097    0.00000
              0.00000    0.00000    0.00009        0.00000    0.00000    0.00009

         MAIN DIRECTIONS OF THE EFG   1.0000 -0.0203  0.0000
                                      0.0203  1.0000  0.0000
                                      0.0000  0.0000  1.0000
:ANG064:  ANGLE WITH OLD X-AXIS =         1.2

:ETA064:                         ASYMM. ETA =     0.81404


     HELLMANN-FEYNMAN-FORCE IN mRy/a.u. = |F|  Fx       Fy             Fz
:FHF001:   1.ATOM          0.203         -0.014         -0.128         -0.157

     HELLMANN-FEYNMAN-FORCE IN mRy/a.u. = |F|  Fx       Fy             Fz
:FHF002:   2.ATOM          0.244         -0.013          0.186          0.157

     HELLMANN-FEYNMAN-FORCE IN mRy/a.u. = |F|  Fx       Fy             Fz
:FHF003:   3.ATOM          0.243         -0.014          0.185         -0.157

     HELLMANN-FEYNMAN-FORCE IN mRy/a.u. = |F|  Fx       Fy             Fz
:FHF004:   4.ATOM          0.203         -0.013         -0.128          0.157

     HELLMANN-FEYNMAN-FORCE IN mRy/a.u. = |F|  Fx       Fy             Fz
:FHF005:   5.ATOM          0.203         -0.014         -0.128          0.157

     HELLMANN-FEYNMAN-FORCE IN mRy/a.u. = |F|  Fx       Fy             Fz
:FHF006:   6.ATOM          0.244         -0.013          0.186         -0.157

     HELLMANN-FEYNMAN-FORCE IN mRy/a.u. = |F|  Fx       Fy             Fz
:FHF007:   7.ATOM          0.243         -0.014          0.185          0.157

     HELLMANN-FEYNMAN-FORCE IN mRy/a.u. = |F|  Fx       Fy             Fz
:FHF008:   8.ATOM          0.203         -0.013         -0.128         -0.157

     HELLMANN-FEYNMAN-FORCE IN mRy/a.u. = |F|  Fx       Fy             Fz
:FHF009:   9.ATOM          2.792         -2.792          0.030          0.000

     HELLMANN-FEYNMAN-FORCE IN mRy/a.u. = |F|  Fx       Fy             Fz
:FHF010:  10.ATOM          2.807         -2.807          0.028          0.000

     HELLMANN-FEYNMAN-FORCE IN mRy/a.u. = |F|  Fx       Fy             Fz
:FHF011:  11.ATOM          0.035          0.019          0.029          0.000

     HELLMANN-FEYNMAN-FORCE IN mRy/a.u. = |F|  Fx       Fy             Fz
:FHF012:  12.ATOM          0.035          0.020          0.029          0.000

     HELLMANN-FEYNMAN-FORCE IN mRy/a.u. = |F|  Fx       Fy             Fz
:FHF013:  13.ATOM          0.035          0.019          0.029          0.000

     HELLMANN-FEYNMAN-FORCE IN mRy/a.u. = |F|  Fx       Fy             Fz
:FHF014:  14.ATOM          0.035          0.020          0.029          0.000

     HELLMANN-FEYNMAN-FORCE IN mRy/a.u. = |F|  Fx       Fy             Fz
:FHF015:  15.ATOM          0.029         -0.002          0.029          0.000

     HELLMANN-FEYNMAN-FORCE IN mRy/a.u. = |F|  Fx       Fy             Fz
:FHF016:  16.ATOM          0.029         -0.001          0.029          0.000

     HELLMANN-FEYNMAN-FORCE IN mRy/a.u. = |F|  Fx       Fy             Fz
:FHF017:  17.ATOM          0.877          0.877          0.023          0.000

     HELLMANN-FEYNMAN-FORCE IN mRy/a.u. = |F|  Fx       Fy             Fz
:FHF018:  18.ATOM          0.397         -0.396          0.029          0.000

     HELLMANN-FEYNMAN-FORCE IN mRy/a.u. = |F|  Fx       Fy             Fz
:FHF019:  19.ATOM          0.876          0.875          0.034          0.000

     HELLMANN-FEYNMAN-FORCE IN mRy/a.u. = |F|  Fx       Fy             Fz
:FHF020:  20.ATOM          0.397         -0.396          0.028          0.000

     HELLMANN-FEYNMAN-FORCE IN mRy/a.u. = |F|  Fx       Fy             Fz
:FHF021:  21.ATOM          0.079          0.073          0.029          0.000

     HELLMANN-FEYNMAN-FORCE IN mRy/a.u. = |F|  Fx       Fy             Fz
:FHF022:  22.ATOM          0.084         -0.079          0.029          0.000

     HELLMANN-FEYNMAN-FORCE IN mRy/a.u. = |F|  Fx       Fy             Fz
:FHF023:  23.ATOM          0.078          0.073          0.028          0.000

     HELLMANN-FEYNMAN-FORCE IN mRy/a.u. = |F|  Fx       Fy             Fz
:FHF024:  24.ATOM          0.084         -0.079          0.028          0.000

     HELLMANN-FEYNMAN-FORCE IN mRy/a.u. = |F|  Fx       Fy             Fz
:FHF025:  25.ATOM          0.876          0.875          0.029         -0.005

     HELLMANN-FEYNMAN-FORCE IN mRy/a.u. = |F|  Fx       Fy             Fz
:FHF026:  26.ATOM          0.397         -0.396          0.029          0.000

     HELLMANN-FEYNMAN-FORCE IN mRy/a.u. = |F|  Fx       Fy             Fz
:FHF027:  27.ATOM          0.079          0.073          0.029          0.000

     HELLMANN-FEYNMAN-FORCE IN mRy/a.u. = |F|  Fx       Fy             Fz
:FHF028:  28.ATOM          0.084         -0.079          0.029          0.000

     HELLMANN-FEYNMAN-FORCE IN mRy/a.u. = |F|  Fx       Fy             Fz
:FHF029:  29.ATOM          0.876          0.875          0.029          0.005

     HELLMANN-FEYNMAN-FORCE IN mRy/a.u. = |F|  Fx       Fy             Fz
:FHF030:  30.ATOM          0.397         -0.396          0.029          0.000

     HELLMANN-FEYNMAN-FORCE IN mRy/a.u. = |F|  Fx       Fy             Fz
:FHF031:  31.ATOM          0.079          0.073          0.029          0.000

     HELLMANN-FEYNMAN-FORCE IN mRy/a.u. = |F|  Fx       Fy             Fz
:FHF032:  32.ATOM          0.084         -0.079          0.029          0.000

     HELLMANN-FEYNMAN-FORCE IN mRy/a.u. = |F|  Fx       Fy             Fz
:FHF033:  33.ATOM          1.368          1.368         -0.016          0.000

     HELLMANN-FEYNMAN-FORCE IN mRy/a.u. = |F|  Fx       Fy             Fz
:FHF034:  34.ATOM          0.417         -0.417         -0.016          0.000

     HELLMANN-FEYNMAN-FORCE IN mRy/a.u. = |F|  Fx       Fy             Fz
:FHF035:  35.ATOM          0.172          0.171         -0.016          0.000

     HELLMANN-FEYNMAN-FORCE IN mRy/a.u. = |F|  Fx       Fy             Fz
:FHF036:  36.ATOM          0.207         -0.207         -0.016          0.000

     HELLMANN-FEYNMAN-FORCE IN mRy/a.u. = |F|  Fx       Fy             Fz
:FHF037:  37.ATOM          0.172          0.171         -0.016          0.000

     HELLMANN-FEYNMAN-FORCE IN mRy/a.u. = |F|  Fx       Fy             Fz
:FHF038:  38.ATOM          0.207         -0.207         -0.016          0.000

     HELLMANN-FEYNMAN-FORCE IN mRy/a.u. = |F|  Fx       Fy             Fz
:FHF039:  39.ATOM          0.059          0.057         -0.016          0.000

     HELLMANN-FEYNMAN-FORCE IN mRy/a.u. = |F|  Fx       Fy             Fz
:FHF040:  40.ATOM          0.060         -0.057         -0.016          0.000

     HELLMANN-FEYNMAN-FORCE IN mRy/a.u. = |F|  Fx       Fy             Fz
:FHF041:  41.ATOM          0.256          0.255         -0.017         -0.001

     HELLMANN-FEYNMAN-FORCE IN mRy/a.u. = |F|  Fx       Fy             Fz
:FHF042:  42.ATOM          0.170         -0.170         -0.016          0.000

     HELLMANN-FEYNMAN-FORCE IN mRy/a.u. = |F|  Fx       Fy             Fz
:FHF043:  43.ATOM          0.256          0.255         -0.015         -0.001

     HELLMANN-FEYNMAN-FORCE IN mRy/a.u. = |F|  Fx       Fy             Fz
:FHF044:  44.ATOM          0.171         -0.170         -0.016          0.000

     HELLMANN-FEYNMAN-FORCE IN mRy/a.u. = |F|  Fx       Fy             Fz
:FHF045:  45.ATOM          0.256          0.255         -0.017          0.001

     HELLMANN-FEYNMAN-FORCE IN mRy/a.u. = |F|  Fx       Fy             Fz
:FHF046:  46.ATOM          0.171         -0.170         -0.016          0.000

     HELLMANN-FEYNMAN-FORCE IN mRy/a.u. = |F|  Fx       Fy             Fz
:FHF047:  47.ATOM          0.255          0.255         -0.015          0.001

     HELLMANN-FEYNMAN-FORCE IN mRy/a.u. = |F|  Fx       Fy             Fz
:FHF048:  48.ATOM          0.171         -0.170         -0.016          0.000

     HELLMANN-FEYNMAN-FORCE IN mRy/a.u. = |F|  Fx       Fy             Fz
:FHF049:  49.ATOM          0.649         -0.351         -0.016         -0.546

     HELLMANN-FEYNMAN-FORCE IN mRy/a.u. = |F|  Fx       Fy             Fz
:FHF050:  50.ATOM          0.652         -0.351         -0.016          0.549

     HELLMANN-FEYNMAN-FORCE IN mRy/a.u. = |F|  Fx       Fy             Fz
:FHF051:  51.ATOM          0.064          0.004         -0.016         -0.062

     HELLMANN-FEYNMAN-FORCE IN mRy/a.u. = |F|  Fx       Fy             Fz
:FHF052:  52.ATOM          0.064          0.005         -0.016          0.062

     HELLMANN-FEYNMAN-FORCE IN mRy/a.u. = |F|  Fx       Fy             Fz
:FHF053:  53.ATOM          0.649         -0.351         -0.016          0.546

     HELLMANN-FEYNMAN-FORCE IN mRy/a.u. = |F|  Fx       Fy             Fz
:FHF054:  54.ATOM          0.652         -0.351         -0.016         -0.549

     HELLMANN-FEYNMAN-FORCE IN mRy/a.u. = |F|  Fx       Fy             Fz
:FHF055:  55.ATOM          0.064          0.004         -0.016          0.062

     HELLMANN-FEYNMAN-FORCE IN mRy/a.u. = |F|  Fx       Fy             Fz
:FHF056:  56.ATOM          0.064          0.005         -0.016         -0.062

     HELLMANN-FEYNMAN-FORCE IN mRy/a.u. = |F|  Fx       Fy             Fz
:FHF057:  57.ATOM          0.662         -0.350         -0.561          0.000

     HELLMANN-FEYNMAN-FORCE IN mRy/a.u. = |F|  Fx       Fy             Fz
:FHF058:  58.ATOM          0.638         -0.351          0.533          0.000

     HELLMANN-FEYNMAN-FORCE IN mRy/a.u. = |F|  Fx       Fy             Fz
:FHF059:  59.ATOM          0.635         -0.351          0.530          0.000

     HELLMANN-FEYNMAN-FORCE IN mRy/a.u. = |F|  Fx       Fy             Fz
:FHF060:  60.ATOM          0.665         -0.351         -0.564          0.000

     HELLMANN-FEYNMAN-FORCE IN mRy/a.u. = |F|  Fx       Fy             Fz
:FHF061:  61.ATOM          0.078          0.004         -0.078          0.000

     HELLMANN-FEYNMAN-FORCE IN mRy/a.u. = |F|  Fx       Fy             Fz
:FHF062:  62.ATOM          0.046          0.005          0.046          0.000

     HELLMANN-FEYNMAN-FORCE IN mRy/a.u. = |F|  Fx       Fy             Fz
:FHF063:  63.ATOM          0.046          0.004          0.046          0.000

     HELLMANN-FEYNMAN-FORCE IN mRy/a.u. = |F|  Fx       Fy             Fz
:FHF064:  64.ATOM          0.078          0.005         -0.078          0.000

:FIT001: LUSE= 13 SIGMA OF V-XC FIT FOR ATOM  1  0.1986161E-01
:FIT001: LUSE= 13 SIGMA OF V-XC FIT FOR ATOM  1  0.1986161E-01
:FIT002: LUSE= 13 SIGMA OF V-XC FIT FOR ATOM  2  0.1985494E-01
:FIT002: LUSE= 13 SIGMA OF V-XC FIT FOR ATOM  2  0.1985494E-01
:FIT003: LUSE= 13 SIGMA OF V-XC FIT FOR ATOM  3  0.1986202E-01
:FIT003: LUSE= 13 SIGMA OF V-XC FIT FOR ATOM  3  0.1986202E-01
:FIT004: LUSE= 13 SIGMA OF V-XC FIT FOR ATOM  4  0.1985454E-01
:FIT004: LUSE= 13 SIGMA OF V-XC FIT FOR ATOM  4  0.1985454E-01
:FIT005: LUSE= 13 SIGMA OF V-XC FIT FOR ATOM  5  0.1986161E-01
:FIT005: LUSE= 13 SIGMA OF V-XC FIT FOR ATOM  5  0.1986161E-01
:FIT006: LUSE= 13 SIGMA OF V-XC FIT FOR ATOM  6  0.1985494E-01
:FIT006: LUSE= 13 SIGMA OF V-XC FIT FOR ATOM  6  0.1985494E-01
:FIT007: LUSE= 13 SIGMA OF V-XC FIT FOR ATOM  7  0.1986202E-01
:FIT007: LUSE= 13 SIGMA OF V-XC FIT FOR ATOM  7  0.1986202E-01
:FIT008: LUSE= 13 SIGMA OF V-XC FIT FOR ATOM  8  0.1985454E-01
:FIT008: LUSE= 13 SIGMA OF V-XC FIT FOR ATOM  8  0.1985454E-01
:FIT009: LUSE= 13 SIGMA OF V-XC FIT FOR ATOM  9  0.1993299E-01
:FIT009: LUSE= 13 SIGMA OF V-XC FIT FOR ATOM  9  0.1993299E-01
:FIT010: LUSE= 13 SIGMA OF V-XC FIT FOR ATOM 10  0.1978364E-01
:FIT010: LUSE= 13 SIGMA OF V-XC FIT FOR ATOM 10  0.1978364E-01
:FIT011: LUSE= 13 SIGMA OF V-XC FIT FOR ATOM 11  0.1986107E-01
:FIT011: LUSE= 13 SIGMA OF V-XC FIT FOR ATOM 11  0.1986107E-01
:FIT012: LUSE= 13 SIGMA OF V-XC FIT FOR ATOM 12  0.1985550E-01
:FIT012: LUSE= 13 SIGMA OF V-XC FIT FOR ATOM 12  0.1985550E-01
:FIT013: LUSE= 13 SIGMA OF V-XC FIT FOR ATOM 13  0.1986133E-01
:FIT013: LUSE= 13 SIGMA OF V-XC FIT FOR ATOM 13  0.1986133E-01
:FIT014: LUSE= 13 SIGMA OF V-XC FIT FOR ATOM 14  0.1985523E-01
:FIT014: LUSE= 13 SIGMA OF V-XC FIT FOR ATOM 14  0.1985523E-01
:FIT015: LUSE= 13 SIGMA OF V-XC FIT FOR ATOM 15  0.1986198E-01
:FIT015: LUSE= 13 SIGMA OF V-XC FIT FOR ATOM 15  0.1986198E-01
:FIT016: LUSE= 13 SIGMA OF V-XC FIT FOR ATOM 16  0.1986290E-01
:FIT016: LUSE= 13 SIGMA OF V-XC FIT FOR ATOM 16  0.1986290E-01
:FIT017: LUSE= 13 SIGMA OF V-XC FIT FOR ATOM 17  0.1986116E-01
:FIT017: LUSE= 13 SIGMA OF V-XC FIT FOR ATOM 17  0.1986116E-01
:FIT018: LUSE= 13 SIGMA OF V-XC FIT FOR ATOM 18  0.1986246E-01
:FIT018: LUSE= 13 SIGMA OF V-XC FIT FOR ATOM 18  0.1986246E-01
:FIT019: LUSE= 13 SIGMA OF V-XC FIT FOR ATOM 19  0.1986259E-01
:FIT019: LUSE= 13 SIGMA OF V-XC FIT FOR ATOM 19  0.1986259E-01
:FIT020: LUSE= 13 SIGMA OF V-XC FIT FOR ATOM 20  0.1986246E-01
:FIT020: LUSE= 13 SIGMA OF V-XC FIT FOR ATOM 20  0.1986246E-01
:FIT021: LUSE= 13 SIGMA OF V-XC FIT FOR ATOM 21  0.1986243E-01
:FIT021: LUSE= 13 SIGMA OF V-XC FIT FOR ATOM 21  0.1986243E-01
:FIT022: LUSE= 13 SIGMA OF V-XC FIT FOR ATOM 22  0.1986244E-01
:FIT022: LUSE= 13 SIGMA OF V-XC FIT FOR ATOM 22  0.1986244E-01
:FIT023: LUSE= 13 SIGMA OF V-XC FIT FOR ATOM 23  0.1986243E-01
:FIT023: LUSE= 13 SIGMA OF V-XC FIT FOR ATOM 23  0.1986243E-01
:FIT024: LUSE= 13 SIGMA OF V-XC FIT FOR ATOM 24  0.1986244E-01
:FIT024: LUSE= 13 SIGMA OF V-XC FIT FOR ATOM 24  0.1986244E-01
:FIT025: LUSE= 13 SIGMA OF V-XC FIT FOR ATOM 25  0.1985969E-01
:FIT025: LUSE= 13 SIGMA OF V-XC FIT FOR ATOM 25  0.1985969E-01
:FIT026: LUSE= 13 SIGMA OF V-XC FIT FOR ATOM 26  0.1986245E-01
:FIT026: LUSE= 13 SIGMA OF V-XC FIT FOR ATOM 26  0.1986245E-01
:FIT027: LUSE= 13 SIGMA OF V-XC FIT FOR ATOM 27  0.1986243E-01
:FIT027: LUSE= 13 SIGMA OF V-XC FIT FOR ATOM 27  0.1986243E-01
:FIT028: LUSE= 13 SIGMA OF V-XC FIT FOR ATOM 28  0.1986244E-01
:FIT028: LUSE= 13 SIGMA OF V-XC FIT FOR ATOM 28  0.1986244E-01
:FIT029: LUSE= 13 SIGMA OF V-XC FIT FOR ATOM 29  0.1985969E-01
:FIT029: LUSE= 13 SIGMA OF V-XC FIT FOR ATOM 29  0.1985969E-01
:FIT030: LUSE= 13 SIGMA OF V-XC FIT FOR ATOM 30  0.1986245E-01
:FIT030: LUSE= 13 SIGMA OF V-XC FIT FOR ATOM 30  0.1986245E-01
:FIT031: LUSE= 13 SIGMA OF V-XC FIT FOR ATOM 31  0.1986243E-01
:FIT031: LUSE= 13 SIGMA OF V-XC FIT FOR ATOM 31  0.1986243E-01
:FIT032: LUSE= 13 SIGMA OF V-XC FIT FOR ATOM 32  0.1986244E-01
:FIT032: LUSE= 13 SIGMA OF V-XC FIT FOR ATOM 32  0.1986244E-01
:FIT033: LUSE= 13 SIGMA OF V-XC FIT FOR ATOM 33  0.9226458E-04
:FIT033: LUSE= 13 SIGMA OF V-XC FIT FOR ATOM 33  0.9226458E-04
:FIT034: LUSE= 13 SIGMA OF V-XC FIT FOR ATOM 34  0.9212916E-04
:FIT034: LUSE= 13 SIGMA OF V-XC FIT FOR ATOM 34  0.9212916E-04
:FIT035: LUSE= 13 SIGMA OF V-XC FIT FOR ATOM 35  0.9212744E-04
[...]
:CTO029: TOTAL   CHARGE IN SPHERE 29 =       10.1640867
:CTO030: TOTAL   CHARGE IN SPHERE 30 =       10.1640882
:CTO031: TOTAL   CHARGE IN SPHERE 31 =       10.1640882
:CTO032: TOTAL   CHARGE IN SPHERE 32 =       10.1640882
:CTO033: TOTAL   CHARGE IN SPHERE 33 =       16.4003277
:CTO034: TOTAL   CHARGE IN SPHERE 34 =       16.4003177
:CTO035: TOTAL   CHARGE IN SPHERE 35 =       16.4003181
:CTO036: TOTAL   CHARGE IN SPHERE 36 =       16.4003181
:CTO037: TOTAL   CHARGE IN SPHERE 37 =       16.4003181
:CTO038: TOTAL   CHARGE IN SPHERE 38 =       16.4003181
:CTO039: TOTAL   CHARGE IN SPHERE 39 =       16.4003185
:CTO040: TOTAL   CHARGE IN SPHERE 40 =       16.4003185
:CTO041: TOTAL   CHARGE IN SPHERE 41 =       16.4003180
:CTO042: TOTAL   CHARGE IN SPHERE 42 =       16.4003181
:CTO043: TOTAL   CHARGE IN SPHERE 43 =       16.4003180
:CTO044: TOTAL   CHARGE IN SPHERE 44 =       16.4003181
:CTO045: TOTAL   CHARGE IN SPHERE 45 =       16.4003180
:CTO046: TOTAL   CHARGE IN SPHERE 46 =       16.4003181
:CTO047: TOTAL   CHARGE IN SPHERE 47 =       16.4003180
:CTO048: TOTAL   CHARGE IN SPHERE 48 =       16.4003181
:CTO049: TOTAL   CHARGE IN SPHERE 49 =       16.4002932
:CTO050: TOTAL   CHARGE IN SPHERE 50 =       16.4003421
:CTO051: TOTAL   CHARGE IN SPHERE 51 =       16.4003179
:CTO052: TOTAL   CHARGE IN SPHERE 52 =       16.4003180
:CTO053: TOTAL   CHARGE IN SPHERE 53 =       16.4002932
:CTO054: TOTAL   CHARGE IN SPHERE 54 =       16.4003421
:CTO055: TOTAL   CHARGE IN SPHERE 55 =       16.4003179
:CTO056: TOTAL   CHARGE IN SPHERE 56 =       16.4003180
:CTO057: TOTAL   CHARGE IN SPHERE 57 =       16.4002934
:CTO058: TOTAL   CHARGE IN SPHERE 58 =       16.4003419
:CTO059: TOTAL   CHARGE IN SPHERE 59 =       16.4002932
:CTO060: TOTAL   CHARGE IN SPHERE 60 =       16.4003420
:CTO061: TOTAL   CHARGE IN SPHERE 61 =       16.4003179
:CTO062: TOTAL   CHARGE IN SPHERE 62 =       16.4003180
:CTO063: TOTAL   CHARGE IN SPHERE 63 =       16.4003179
:CTO064: TOTAL   CHARGE IN SPHERE 64 =       16.4003180

:NEC03: NUCLEAR AND ELECTRONIC CHARGE    896.00000   896.00000     1.00000


:ENE  : ********** TOTAL ENERGY IN Ry =       -39940.36225096

       TOTAL FORCE IN mRy/a.u. = |F|     Fx             Fy             Fz     with/without FOR in case.in2
:FOR001:   1.ATOM       0.020518      -0.004000      -0.009000      -0.018000 total forces
:FOR002:   2.ATOM       0.032588      -0.003000       0.027000       0.018000 total forces
:FOR003:   3.ATOM       0.031875      -0.004000       0.026000      -0.018000 total forces
:FOR004:   4.ATOM       0.019925      -0.003000      -0.008000       0.018000 total forces
:FOR005:   5.ATOM       0.020518      -0.004000      -0.009000       0.018000 total forces
:FOR006:   6.ATOM       0.032588      -0.003000       0.027000      -0.018000 total forces
:FOR007:   7.ATOM       0.031875      -0.004000       0.026000       0.018000 total forces
:FOR008:   8.ATOM       0.019925      -0.003000      -0.008000      -0.018000 total forces
:FOR009:   9.ATOM       0.196255       0.196000       0.010000       0.000000 total forces
:FOR010:  10.ATOM       0.216187       0.216000       0.009000       0.000000 total forces
:FOR011:  11.ATOM       0.010050       0.001000       0.010000       0.000000 total forces
:FOR012:  12.ATOM       0.010198       0.002000       0.010000       0.000000 total forces
:FOR013:  13.ATOM       0.010050       0.001000       0.010000       0.000000 total forces
:FOR014:  14.ATOM       0.010198       0.002000       0.010000       0.000000 total forces
:FOR015:  15.ATOM       0.010050      -0.001000       0.010000       0.000000 total forces
:FOR016:  16.ATOM       0.010000       0.000000       0.010000       0.000000 total forces
:FOR017:  17.ATOM       0.069584       0.069000       0.009000       0.000000 total forces
:FOR018:  18.ATOM       0.040262      -0.039000       0.010000       0.000000 total forces
:FOR019:  19.ATOM       0.068593       0.068000       0.009000       0.000000 total forces
:FOR020:  20.ATOM       0.040025      -0.039000       0.009000       0.000000 total forces
:FOR021:  21.ATOM       0.013454       0.009000       0.010000       0.000000 total forces
:FOR022:  22.ATOM       0.014142      -0.010000       0.010000       0.000000 total forces
:FOR023:  23.ATOM       0.012728       0.009000       0.009000       0.000000 total forces
:FOR024:  24.ATOM       0.013454      -0.010000       0.009000       0.000000 total forces
:FOR025:  25.ATOM       0.068739       0.068000       0.010000       0.001000 total forces
:FOR026:  26.ATOM       0.040262      -0.039000       0.010000       0.000000 total forces
:FOR027:  27.ATOM       0.013454       0.009000       0.010000       0.000000 total forces
:FOR028:  28.ATOM       0.014142      -0.010000       0.010000       0.000000 total forces
:FOR029:  29.ATOM       0.068739       0.068000       0.010000      -0.001000 total forces
:FOR030:  30.ATOM       0.040262      -0.039000       0.010000       0.000000 total forces
:FOR031:  31.ATOM       0.013454       0.009000       0.010000       0.000000 total forces
:FOR032:  32.ATOM       0.014142      -0.010000       0.010000       0.000000 total forces
:FOR033:  33.ATOM       0.979041      -0.979000       0.009000       0.000000 total forces
:FOR034:  34.ATOM       0.056719       0.056000       0.009000       0.000000 total forces
:FOR035:  35.ATOM       0.023770      -0.022000       0.009000       0.000000 total forces
:FOR036:  36.ATOM       0.028460       0.027000       0.009000       0.000000 total forces
:FOR037:  37.ATOM       0.024698      -0.023000       0.009000       0.000000 total forces
:FOR038:  38.ATOM       0.028460       0.027000       0.009000       0.000000 total forces
:FOR039:  39.ATOM       0.011402      -0.007000       0.009000       0.000000 total forces
:FOR040:  40.ATOM       0.011402       0.007000       0.009000       0.000000 total forces
:FOR041:  41.ATOM       0.034205      -0.033000       0.009000       0.000000 total forces
:FOR042:  42.ATOM       0.021932       0.020000       0.009000       0.000000 total forces
:FOR043:  43.ATOM       0.034205      -0.033000       0.009000       0.000000 total forces
:FOR044:  44.ATOM       0.021932       0.020000       0.009000       0.000000 total forces
:FOR045:  45.ATOM       0.034205      -0.033000       0.009000       0.000000 total forces
:FOR046:  46.ATOM       0.021932       0.020000       0.009000       0.000000 total forces
:FOR047:  47.ATOM       0.034205      -0.033000       0.009000       0.000000 total forces
:FOR048:  48.ATOM       0.021932       0.020000       0.009000       0.000000 total forces
:FOR049:  49.ATOM       0.103566       0.057000       0.009000       0.086000 total forces
:FOR050:  50.ATOM       0.103566       0.057000       0.009000      -0.086000 total forces
:FOR051:  51.ATOM       0.012083      -0.001000       0.009000       0.008000 total forces
:FOR052:  52.ATOM       0.011446      -0.001000       0.009000      -0.007000 total forces
:FOR053:  53.ATOM       0.103566       0.057000       0.009000      -0.086000 total forces
:FOR054:  54.ATOM       0.103566       0.057000       0.009000       0.086000 total forces
:FOR055:  55.ATOM       0.012083      -0.001000       0.009000      -0.008000 total forces
:FOR056:  56.ATOM       0.011446      -0.001000       0.009000       0.007000 total forces
:FOR057:  57.ATOM       0.109932       0.057000       0.094000       0.000000 total forces
:FOR058:  58.ATOM       0.095000       0.057000      -0.076000       0.000000 total forces
:FOR059:  59.ATOM       0.093600       0.056000      -0.075000       0.000000 total forces
:FOR060:  60.ATOM       0.109932       0.057000       0.094000       0.000000 total forces
:FOR061:  61.ATOM       0.017029      -0.001000       0.017000       0.000000 total forces
:FOR062:  62.ATOM       0.001414      -0.001000       0.001000       0.000000 total forces
:FOR063:  63.ATOM       0.001414      -0.001000       0.001000       0.000000 total forces
:FOR064:  64.ATOM       0.016031      -0.001000       0.016000       0.000000 total forces

       TOTAL FORCE WITH RESPECT TO GLOBAL CARTESIAN COORDINATES:
:FCA001:   1.ATOM                     -0.004000      -0.009000      -0.018000 total forces
:FCA002:   2.ATOM                     -0.003000       0.027000       0.018000 total forces
:FCA003:   3.ATOM                     -0.004000       0.026000      -0.018000 total forces
:FCA004:   4.ATOM                     -0.003000      -0.008000       0.018000 total forces
:FCA005:   5.ATOM                     -0.004000      -0.009000       0.018000 total forces
:FCA006:   6.ATOM                     -0.003000       0.027000      -0.018000 total forces
:FCA007:   7.ATOM                     -0.004000       0.026000       0.018000 total forces
:FCA008:   8.ATOM                     -0.003000      -0.008000      -0.018000 total forces
:FCA009:   9.ATOM                      0.196000       0.010000       0.000000 total forces
:FCA010:  10.ATOM                      0.216000       0.009000       0.000000 total forces
:FCA011:  11.ATOM                      0.001000       0.010000       0.000000 total forces
:FCA012:  12.ATOM                      0.002000       0.010000       0.000000 total forces
:FCA013:  13.ATOM                      0.001000       0.010000       0.000000 total forces
:FCA014:  14.ATOM                      0.002000       0.010000       0.000000 total forces
:FCA015:  15.ATOM                     -0.001000       0.010000       0.000000 total forces
:FCA016:  16.ATOM                      0.000000       0.010000       0.000000 total forces
:FCA017:  17.ATOM                      0.069000       0.009000       0.000000 total forces
:FCA018:  18.ATOM                     -0.039000       0.010000       0.000000 total forces
:FCA019:  19.ATOM                      0.068000       0.009000       0.000000 total forces
:FCA020:  20.ATOM                     -0.039000       0.009000       0.000000 total forces
:FCA021:  21.ATOM                      0.009000       0.010000       0.000000 total forces
:FCA022:  22.ATOM                     -0.010000       0.010000       0.000000 total forces
:FCA023:  23.ATOM                      0.009000       0.009000       0.000000 total forces
:FCA024:  24.ATOM                     -0.010000       0.009000       0.000000 total forces
:FCA025:  25.ATOM                      0.068000       0.010000       0.001000 total forces
:FCA026:  26.ATOM                     -0.039000       0.010000       0.000000 total forces
:FCA027:  27.ATOM                      0.009000       0.010000       0.000000 total forces
:FCA028:  28.ATOM                     -0.010000       0.010000       0.000000 total forces
:FCA029:  29.ATOM                      0.068000       0.010000      -0.001000 total forces
:FCA030:  30.ATOM                     -0.039000       0.010000       0.000000 total forces
:FCA031:  31.ATOM                      0.009000       0.010000       0.000000 total forces
:FCA032:  32.ATOM                     -0.010000       0.010000       0.000000 total forces
:FCA033:  33.ATOM                     -0.979000       0.009000       0.000000 total forces
:FCA034:  34.ATOM                      0.056000       0.009000       0.000000 total forces
:FCA035:  35.ATOM                     -0.022000       0.009000       0.000000 total forces
:FCA036:  36.ATOM                      0.027000       0.009000       0.000000 total forces
:FCA037:  37.ATOM                     -0.023000       0.009000       0.000000 total forces
:FCA038:  38.ATOM                      0.027000       0.009000       0.000000 total forces
:FCA039:  39.ATOM                     -0.007000       0.009000       0.000000 total forces
:FCA040:  40.ATOM                      0.007000       0.009000       0.000000 total forces
:FCA041:  41.ATOM                     -0.033000       0.009000       0.000000 total forces
:FCA042:  42.ATOM                      0.020000       0.009000       0.000000 total forces
:FCA043:  43.ATOM                     -0.033000       0.009000       0.000000 total forces
:FCA044:  44.ATOM                      0.020000       0.009000       0.000000 total forces
:FCA045:  45.ATOM                     -0.033000       0.009000       0.000000 total forces
:FCA046:  46.ATOM                      0.020000       0.009000       0.000000 total forces
:FCA047:  47.ATOM                     -0.033000       0.009000       0.000000 total forces
:FCA048:  48.ATOM                      0.020000       0.009000       0.000000 total forces
:FCA049:  49.ATOM                      0.057000       0.009000       0.086000 total forces
:FCA050:  50.ATOM                      0.057000       0.009000      -0.086000 total forces
:FCA051:  51.ATOM                     -0.001000       0.009000       0.008000 total forces
:FCA052:  52.ATOM                     -0.001000       0.009000      -0.007000 total forces
:FCA053:  53.ATOM                      0.057000       0.009000      -0.086000 total forces
:FCA054:  54.ATOM                      0.057000       0.009000       0.086000 total forces
:FCA055:  55.ATOM                     -0.001000       0.009000      -0.008000 total forces
:FCA056:  56.ATOM                     -0.001000       0.009000       0.007000 total forces
:FCA057:  57.ATOM                      0.057000       0.094000       0.000000 total forces
:FCA058:  58.ATOM                      0.057000      -0.076000       0.000000 total forces
:FCA059:  59.ATOM                      0.056000      -0.075000       0.000000 total forces
:FCA060:  60.ATOM                      0.057000       0.094000       0.000000 total forces
:FCA061:  61.ATOM                     -0.001000       0.017000       0.000000 total forces
:FCA062:  62.ATOM                     -0.001000       0.001000       0.000000 total forces
:FCA063:  63.ATOM                     -0.001000       0.001000       0.000000 total forces
:FCA064:  64.ATOM                     -0.001000       0.016000       0.000000 total forces

       TOTAL FORCE WITH RESPECT TO THE GLOBAL COORDINATE SYSTEM:
:FGL001:   1.ATOM                -0.004000000    -0.009000000    -0.018000000 total forces
:FGL002:   2.ATOM                -0.003000000     0.027000000     0.018000000 total forces
:FGL003:   3.ATOM                -0.004000000     0.026000000    -0.018000000 total forces
:FGL004:   4.ATOM                -0.003000000    -0.008000000     0.018000000 total forces
:FGL005:   5.ATOM                -0.004000000    -0.009000000     0.018000000 total forces
:FGL006:   6.ATOM                -0.003000000     0.027000000    -0.018000000 total forces
:FGL007:   7.ATOM                -0.004000000     0.026000000     0.018000000 total forces
:FGL008:   8.ATOM                -0.003000000    -0.008000000    -0.018000000 total forces
:FGL009:   9.ATOM                 0.196000000     0.010000000     0.000000000 total forces
:FGL010:  10.ATOM                 0.216000000     0.009000000     0.000000000 total forces
:FGL011:  11.ATOM                 0.001000000     0.010000000     0.000000000 total forces
:FGL012:  12.ATOM                 0.002000000     0.010000000     0.000000000 total forces
:FGL013:  13.ATOM                 0.001000000     0.010000000     0.000000000 total forces
:FGL014:  14.ATOM                 0.002000000     0.010000000     0.000000000 total forces
:FGL015:  15.ATOM                -0.001000000     0.010000000     0.000000000 total forces
:FGL016:  16.ATOM                 0.000000000     0.010000000     0.000000000 total forces
:FGL017:  17.ATOM                 0.069000000     0.009000000     0.000000000 total forces
:FGL018:  18.ATOM                -0.039000000     0.010000000     0.000000000 total forces
:FGL019:  19.ATOM                 0.068000000     0.009000000     0.000000000 total forces
:FGL020:  20.ATOM                -0.039000000     0.009000000     0.000000000 total forces
:FGL021:  21.ATOM                 0.009000000     0.010000000     0.000000000 total forces
:FGL022:  22.ATOM                -0.010000000     0.010000000     0.000000000 total forces
:FGL023:  23.ATOM                 0.009000000     0.009000000     0.000000000 total forces
:FGL024:  24.ATOM                -0.010000000     0.009000000     0.000000000 total forces
:FGL025:  25.ATOM                 0.068000000     0.010000000     0.001000000 total forces
:FGL026:  26.ATOM                -0.039000000     0.010000000     0.000000000 total forces
:FGL027:  27.ATOM                 0.009000000     0.010000000     0.000000000 total forces
:FGL028:  28.ATOM                -0.010000000     0.010000000     0.000000000 total forces
:FGL029:  29.ATOM                 0.068000000     0.010000000    -0.001000000 total forces
:FGL030:  30.ATOM                -0.039000000     0.010000000     0.000000000 total forces
:FGL031:  31.ATOM                 0.009000000     0.010000000     0.000000000 total forces
:FGL032:  32.ATOM                -0.010000000     0.010000000     0.000000000 total forces
:FGL033:  33.ATOM                -0.979000000     0.009000000     0.000000000 total forces
:FGL034:  34.ATOM                 0.056000000     0.009000000     0.000000000 total forces
:FGL035:  35.ATOM                -0.022000000     0.009000000     0.000000000 total forces
:FGL036:  36.ATOM                 0.027000000     0.009000000     0.000000000 total forces
:FGL037:  37.ATOM                -0.023000000     0.009000000     0.000000000 total forces
:FGL038:  38.ATOM                 0.027000000     0.009000000     0.000000000 total forces
:FGL039:  39.ATOM                -0.007000000     0.009000000     0.000000000 total forces
:FGL040:  40.ATOM                 0.007000000     0.009000000     0.000000000 total forces
:FGL041:  41.ATOM                -0.033000000     0.009000000     0.000000000 total forces
:FGL042:  42.ATOM                 0.020000000     0.009000000     0.000000000 total forces
:FGL043:  43.ATOM                -0.033000000     0.009000000     0.000000000 total forces
:FGL044:  44.ATOM                 0.020000000     0.009000000     0.000000000 total forces
:FGL045:  45.ATOM                -0.033000000     0.009000000     0.000000000 total forces
:FGL046:  46.ATOM                 0.020000000     0.009000000     0.000000000 total forces
:FGL047:  47.ATOM                -0.033000000     0.009000000     0.000000000 total forces
:FGL048:  48.ATOM                 0.020000000     0.009000000     0.000000000 total forces
:FGL049:  49.ATOM                 0.057000000     0.009000000     0.086000000 total forces
:FGL050:  50.ATOM                 0.057000000     0.009000000    -0.086000000 total forces
:FGL051:  51.ATOM                -0.001000000     0.009000000     0.008000000 total forces
:FGL052:  52.ATOM                -0.001000000     0.009000000    -0.007000000 total forces
:FGL053:  53.ATOM                 0.057000000     0.009000000    -0.086000000 total forces
:FGL054:  54.ATOM                 0.057000000     0.009000000     0.086000000 total forces
:FGL055:  55.ATOM                -0.001000000     0.009000000    -0.008000000 total forces
:FGL056:  56.ATOM                -0.001000000     0.009000000     0.007000000 total forces
:FGL057:  57.ATOM                 0.057000000     0.094000000     0.000000000 total forces
:FGL058:  58.ATOM                 0.057000000    -0.076000000     0.000000000 total forces
:FGL059:  59.ATOM                 0.056000000    -0.075000000     0.000000000 total forces
:FGL060:  60.ATOM                 0.057000000     0.094000000     0.000000000 total forces
:FGL061:  61.ATOM                -0.001000000     0.017000000     0.000000000 total forces
:FGL062:  62.ATOM                -0.001000000     0.001000000     0.000000000 total forces
:FGL063:  63.ATOM                -0.001000000     0.001000000     0.000000000 total forces
:FGL064:  64.ATOM                -0.001000000     0.016000000     0.000000000 total forces
:FSUM  : Sum of forces Fx,Fy,Fz           -0.01700            0.59400            0.00000
