84
11

1
  0.0100000000000000   0.0000000000000000   0.0000000000000000
  -0.7156981500    0.0136815300    0.0000000000
   0.0136808000    0.0000371800    0.0000000000
  -0.0024619600   -0.0093382600    0.0000000000
  -0.0024926500    0.0093173100    0.0000000000
  -0.0041682000    0.0000087400   -0.0000048400
   0.0031179900    0.0000031100    0.0000001800
  -0.0000097000   -0.0018082100   -0.0001049400
  -0.0000144000    0.0018072900    0.0001051600
  -0.0041682000    0.0000087400    0.0000048400
   0.0031179900    0.0000031100   -0.0000001800
  -0.0000097000   -0.0018082100    0.0001049400
  -0.0000144000    0.0018072900   -0.0001051600
   0.0989094500   -0.0012506500    0.0000000000
  -0.0048533500   -0.0003947700    0.0000000000
  -0.0012896000    0.0078302000    0.0000000000
  -0.0012781300   -0.0085710700    0.0000000000
   0.0011410100   -0.0003932900   -0.0000094300
  -0.0009695300   -0.0003890500   -0.0000154300
   0.0000102500    0.0009910000   -0.0008061300
   0.0000115400   -0.0017648900    0.0007747000
   0.0011410100   -0.0003932900    0.0000094300
  -0.0009695300   -0.0003890500    0.0000154300
   0.0000102500    0.0009910000    0.0008061300
   0.0000115400   -0.0017648900   -0.0007747000
   0.2915424300    0.1105480000    0.0000000000
  -0.0102238700   -0.0012638400    0.0000000000
   0.0022604800    0.0041053200    0.0000000000
   0.0002884900   -0.0029797200    0.0000000000
   0.0024880200    0.0007766800    0.0012964000
  -0.0015654800   -0.0003561300   -0.0009699600
   0.0005696700    0.0008901000    0.0001619300
   0.0000932700   -0.0005063300   -0.0001761200
   0.0024880200    0.0007766800   -0.0012964000
  -0.0015654800   -0.0003561300    0.0009699600
   0.0005696700    0.0008901000   -0.0001619300
   0.0000932700   -0.0005063300    0.0001761200
   0.3107876400   -0.1231217000    0.0000000000
  -0.0108645500    0.0016481600    0.0000000000
  -0.0004314600    0.0034003800    0.0000000000
   0.0016068200   -0.0037309000    0.0000000000
   0.0018382000   -0.0004040500   -0.0013246000
  -0.0022458100    0.0007530600    0.0009388000
  -0.0005748700    0.0008915100    0.0001516200
  -0.0000895500   -0.0005093600   -0.0001926800
   0.0018382000   -0.0004040500    0.0013246000
  -0.0022458100    0.0007530600   -0.0009388000
  -0.0005748700    0.0008915100   -0.0001516200
  -0.0000895500   -0.0005093600    0.0001926800
  -0.0017260200    0.0031961400   -0.0039566400
  -0.0017083700   -0.0032152500    0.0039929600
   0.0038350000   -0.0000062300    0.0000087900
  -0.0017530200    0.0000039700    0.0000134800
  -0.0017260200    0.0031961400    0.0039566400
  -0.0017083700   -0.0032152500   -0.0039929600
   0.0038350000   -0.0000062300   -0.0000087900
  -0.0017530200    0.0000039700   -0.0000134800
  -0.0000037300    0.0001183400    0.0000000000
  -0.0000012200   -0.0001215000    0.0000000000
   0.0002046900   -0.0000024900    0.0000000000
  -0.0001788800   -0.0000005000    0.0000000000
   0.0040597700    0.0029986200    0.0063674000
   0.0040773700   -0.0030209200   -0.0064140400
   0.0009514400    0.0000028400   -0.0000022700
  -0.0011445400   -0.0000137800    0.0000140800
   0.0040597700    0.0029986200   -0.0063674000
   0.0040773700   -0.0030209200    0.0064140400
   0.0009514400    0.0000028400    0.0000022700
  -0.0011445400   -0.0000137800   -0.0000140800
   0.0000189800    0.0000738800    0.0000000000
   0.0000180900   -0.0000721200    0.0000000000
   0.0001102900    0.0000009100    0.0000000000
  -0.0001084400   -0.0000002600    0.0000000000
   0.0178178300   -0.0233122700    0.0000000000
   0.0179259400    0.0235772100    0.0000000000
  -0.0227338400   -0.0000381200    0.0000000000
   0.0045644600   -0.0000184300    0.0000000000
   0.0001388200   -0.0007299700   -0.0024695200
   0.0001303100    0.0007321600    0.0024353200
  -0.0011303600    0.0000032200   -0.0000176300
   0.0010789100   -0.0000018900   -0.0000186700
   0.0001388200   -0.0007299700    0.0024695200
   0.0001303100    0.0007321600   -0.0024353200
  -0.0011303600    0.0000032200    0.0000176300
   0.0010789100   -0.0000018900    0.0000186700

1
  0.0000000000000000   0.0000000000000000   0.0100000000000000
   0.0000000000    0.0000000000   -0.2399099900
   0.0000000000   -0.0000043000   -0.0002679800
   0.0000037300    0.0000021500   -0.0002679800
  -0.0000037300    0.0000021500   -0.0002679800
   0.0000000000    0.0000000000    0.0004490600
   0.0000000000   -0.0001178200    0.0000302100
   0.0001020300    0.0000589100    0.0000302100
  -0.0001020300    0.0000589100    0.0000302100
   0.0000000000    0.0000000000    0.0004445000
   0.0000000000    0.0001171500    0.0000305500
  -0.0001014600   -0.0000585800    0.0000305500
   0.0001014600   -0.0000585800    0.0000305500
   0.0000000000   -0.0011769300    0.0812388700
   0.0000000000   -0.0003773300    0.0000995800
   0.0000025900   -0.0003857500   -0.0002904900
  -0.0000025900   -0.0003857500   -0.0002904900
   0.0000000000   -0.0004438100   -0.0003092700
   0.0000000000   -0.0002936400   -0.0000550400
  -0.0000697800   -0.0004375300    0.0000451900
   0.0000697800   -0.0004375300    0.0000451900
   0.0000000000   -0.0003172200   -0.0002775300
   0.0000000000   -0.0004646000   -0.0000280900
   0.0000694800   -0.0003228800    0.0000726100
  -0.0000694800   -0.0003228800    0.0000726100
   0.0010192500    0.0005884600    0.0812388700
   0.0003353600    0.0001906300   -0.0002904900
   0.0003267800    0.0001886700    0.0000995800
   0.0003327800    0.0001951200   -0.0002904900
   0.0003843500    0.0002219000   -0.0003092700
   0.0003440200    0.0002792000    0.0000451900
   0.0002543000    0.0001468200   -0.0000550400
   0.0004138000    0.0001583300    0.0000451900
   0.0002747200    0.0001586100   -0.0002775300
   0.0003143700    0.0001012700    0.0000726100
   0.0004023500    0.0002323000   -0.0000280900
   0.0002448800    0.0002216200    0.0000726100
  -0.0010192500    0.0005884600    0.0812388700
  -0.0003353600    0.0001906300   -0.0002904900
  -0.0003327800    0.0001951200   -0.0002904900
  -0.0003267800    0.0001886700    0.0000995800
  -0.0003843500    0.0002219000   -0.0003092700
  -0.0003440200    0.0002792000    0.0000451900
  -0.0004138000    0.0001583300    0.0000451900
  -0.0002543000    0.0001468200   -0.0000550400
  -0.0002747200    0.0001586100   -0.0002775300
  -0.0003143700    0.0001012700    0.0000726100
  -0.0002448800    0.0002216200    0.0000726100
  -0.0004023500    0.0002323000   -0.0000280900
  -0.0003830900    0.0002211800    0.0000885300
   0.0003830900    0.0002211800    0.0000885300
   0.0000000000   -0.0004423500    0.0000885300
   0.0000000000    0.0000000000   -0.0000113000
   0.0003915400   -0.0002260500    0.0000866300
  -0.0003915400   -0.0002260500    0.0000866300
   0.0000000000    0.0004521100    0.0000866300
   0.0000000000    0.0000000000   -0.0000176600
   0.0000000600   -0.0000000300   -0.0001907900
  -0.0000000600   -0.0000000300   -0.0001907900
   0.0000000000    0.0000000700   -0.0001907900
   0.0000000000    0.0000000000    0.0000007200
   0.0013681200    0.0007898800    0.0003302700
  -0.0013681200    0.0007898800    0.0003302700
   0.0000000000    0.0000000000   -0.0000293400
   0.0000000000   -0.0015797600    0.0003302700
  -0.0013911800   -0.0008032000    0.0003260500
   0.0013911800   -0.0008032000    0.0003260500
   0.0000000000    0.0000000000   -0.0000391800
   0.0000000000    0.0016063900    0.0003260500
  -0.0000009300   -0.0000005400    0.0001373600
   0.0000009300   -0.0000005400    0.0001373600
   0.0000000000    0.0000000000    0.0000683300
   0.0000000000    0.0000010800    0.0001373600
   0.0000158300   -0.0000091400   -0.0018668400
  -0.0000158300   -0.0000091400   -0.0018668400
   0.0000000000    0.0000182800   -0.0018668400
   0.0000000000    0.0000000000    0.0001320400
  -0.0002792400    0.0001612200    0.0003097400
   0.0002792400    0.0001612200    0.0003097400
   0.0000000000   -0.0003224400    0.0003097400
   0.0000000000    0.0000000000   -0.0000971100
   0.0002741700   -0.0001582900    0.0003514700
  -0.0002741700   -0.0001582900    0.0003514700
   0.0000000000    0.0003165900    0.0003514700
   0.0000000000    0.0000000000   -0.0000550700

13
 -0.0049999999863422   0.0086602540457297   0.0000000000000000
  -0.0501547000    0.3074904400    0.0000000000
   0.0024218100    0.0036220600    0.0000000000
   0.0077436200   -0.0076874600    0.0000000000
  -0.0064493100   -0.0037985800    0.0000000000
  -0.0005782800    0.0021615100    0.0000534400
   0.0004753500    0.0005566700   -0.0000717700
   0.0011727000   -0.0014971500    0.0000170500
  -0.0011960600   -0.0009608800    0.0000863500
  -0.0005782800    0.0021615100   -0.0000534400
   0.0004753500    0.0005566700    0.0000717700
   0.0011727000   -0.0014971500   -0.0000170500
  -0.0011960600   -0.0009608800   -0.0000863500
   0.0612096100   -0.4451492100    0.0000000000
  -0.0029405600   -0.0023945000    0.0000000000
  -0.0037520500    0.0079596800    0.0000000000
   0.0028799700    0.0041347800    0.0000000000
   0.0002481300   -0.0017982000    0.0007369800
  -0.0002302200   -0.0007403200    0.0000713100
  -0.0003369200    0.0006542000   -0.0004441900
   0.0003377900    0.0002708400   -0.0002992500
   0.0002481300   -0.0017982000   -0.0007369800
  -0.0002302200   -0.0007403200   -0.0000713100
  -0.0003369200    0.0006542000    0.0004441900
   0.0003377900    0.0002708400    0.0002992500
   0.0376415200    0.0254886700    0.0000000000
  -0.0027050500   -0.0010076800    0.0000000000
  -0.0027124200    0.0027522300    0.0000000000
   0.0081866800    0.0065789500    0.0000000000
   0.0003004500   -0.0005386800   -0.0002704200
  -0.0001123800   -0.0000777400   -0.0003690700
  -0.0001173400    0.0005950100   -0.0000262000
   0.0013536300    0.0007692600    0.0006223700
   0.0003004500   -0.0005386800    0.0002704200
  -0.0001123800   -0.0000777400    0.0003690700
  -0.0001173400    0.0005950100    0.0000262000
   0.0013536300    0.0007692600   -0.0006223700
  -0.0403045800    0.0893215700    0.0000000000
  -0.0010270500   -0.0010309500    0.0000000000
  -0.0098130500    0.0113300800    0.0000000000
   0.0022333900    0.0008438800    0.0000000000
   0.0003203900   -0.0006190800   -0.0005902700
  -0.0004529600   -0.0000113900   -0.0001060400
  -0.0013372500    0.0010222300    0.0007238900
   0.0001363700    0.0003263700   -0.0001447000
   0.0003203900   -0.0006190800    0.0005902700
  -0.0004529600   -0.0000113900    0.0001060400
  -0.0013372500    0.0010222300   -0.0007238900
   0.0001363700    0.0003263700    0.0001447000
  -0.0021871400   -0.0010972800   -0.0026671500
   0.0007332600   -0.0014692300    0.0008828900
   0.0003001500    0.0017277600    0.0025095600
  -0.0000900200    0.0011495600   -0.0000618400
  -0.0021871400   -0.0010972800    0.0026671500
   0.0007332600   -0.0014692300   -0.0008828900
   0.0003001500    0.0017277600   -0.0025095600
  -0.0000900200    0.0011495600    0.0000618400
  -0.0000691300   -0.0000918500    0.0000000000
   0.0000715500   -0.0000985200    0.0000000000
   0.0000073400    0.0000539200    0.0000000000
  -0.0000001600    0.0001252200    0.0000000000
  -0.0012872800    0.0001425600   -0.0016891500
   0.0020006000   -0.0008089900   -0.0030399100
   0.0005048200   -0.0004148300   -0.0000062800
  -0.0008088400    0.0010456900   -0.0002033300
  -0.0012872800    0.0001425600    0.0016891500
   0.0020006000   -0.0008089900    0.0030399100
   0.0005048200   -0.0004148300    0.0000062800
  -0.0008088400    0.0010456900    0.0002033300
  -0.0000406800    0.0000445100    0.0000000000
   0.0000414200   -0.0000312900    0.0000000000
   0.0000643900   -0.0000312400    0.0000000000
  -0.0000663000    0.0000096600    0.0000000000
   0.0069329600    0.0068156200    0.0000000000
  -0.0056737600    0.0097164200    0.0000000000
  -0.0020654100   -0.0123679700    0.0000000000
  -0.0000330400   -0.0031873200    0.0000000000
   0.0004367000    0.0004591800   -0.0013567800
  -0.0003944200    0.0005280500    0.0001276400
  -0.0000526300   -0.0003337500    0.0014528300
   0.0000478800   -0.0007469300   -0.0001190400
   0.0004367000    0.0004591800    0.0013567800
  -0.0003944200    0.0005280500   -0.0001276400
  -0.0000526300   -0.0003337500   -0.0014528300
   0.0000478800   -0.0007469300    0.0001190400

13
  0.0049999999863422  -0.0086602540457297   0.0000000000000000
   0.0486408800   -0.3310216100    0.0000000000
  -0.0024265200   -0.0036387000    0.0000000000
  -0.0077545100    0.0077302800    0.0000000000
   0.0064902000    0.0038346700    0.0000000000
   0.0005772400   -0.0021714000   -0.0000499600
  -0.0004823500   -0.0005582000    0.0000728400
  -0.0011829000    0.0015107000   -0.0000172400
   0.0011945900    0.0009621600   -0.0000854700
   0.0005772400   -0.0021714000    0.0000499600
  -0.0004823500   -0.0005582000   -0.0000728400
  -0.0011829000    0.0015107000    0.0000172400
   0.0011945900    0.0009621600    0.0000854700
  -0.0605017700    0.4701200800    0.0000000000
   0.0029039100    0.0016413000    0.0000000000
   0.0037629300   -0.0087562900    0.0000000000
  -0.0028893200   -0.0049088600    0.0000000000
  -0.0002475500    0.0010359200   -0.0007702400
   0.0002298700   -0.0000333300   -0.0000988200
   0.0003370500   -0.0014304900    0.0004212700
  -0.0003395500   -0.0010397800    0.0002735900
  -0.0002475500    0.0010359200    0.0007702400
   0.0002298700   -0.0000333300    0.0000988200
   0.0003370500   -0.0014304900   -0.0004212700
  -0.0003395500   -0.0010397800   -0.0002735900
  -0.0373640300   -0.0249154800    0.0000000000
   0.0033738300    0.0014099200    0.0000000000
   0.0033682300   -0.0023752500    0.0000000000
  -0.0075145200   -0.0062115500    0.0000000000
   0.0003604200    0.0009235000    0.0002441100
   0.0007858100    0.0004693800    0.0003448200
   0.0007828400   -0.0002144200    0.0000000600
  -0.0006897600   -0.0003871200   -0.0006495800
   0.0003604200    0.0009235000   -0.0002441100
   0.0007858100    0.0004693800   -0.0003448200
   0.0007828400   -0.0002144200   -0.0000000600
  -0.0006897600   -0.0003871200    0.0006495800
   0.0408699000   -0.0915812900    0.0000000000
   0.0003708500    0.0014090700    0.0000000000
   0.0091106700   -0.0108361900    0.0000000000
  -0.0029047000   -0.0004883500    0.0000000000
  -0.0009805500    0.0010058700    0.0005649800
  -0.0002088000    0.0003938300    0.0000804900
   0.0006822400   -0.0006478300   -0.0007506300
  -0.0007937700    0.0000500700    0.0001172200
  -0.0009805500    0.0010058700   -0.0005649800
  -0.0002088000    0.0003938300   -0.0000804900
   0.0006822400   -0.0006478300    0.0007506300
  -0.0007937700    0.0000500700   -0.0001172200
   0.0021935200    0.0010893700    0.0026598700
  -0.0007612500    0.0014711200   -0.0008303900
  -0.0003065100   -0.0017408700   -0.0025174500
   0.0001010200   -0.0011571600    0.0000699100
   0.0021935200    0.0010893700   -0.0026598700
  -0.0007612500    0.0014711200    0.0008303900
  -0.0003065100   -0.0017408700    0.0025174500
   0.0001010200   -0.0011571600   -0.0000699100
   0.0000750900    0.0000873300    0.0000000000
  -0.0000670900    0.0000949200    0.0000000000
  -0.0000042400   -0.0000581600    0.0000000000
   0.0000076400   -0.0001296400    0.0000000000
   0.0012818300   -0.0001438600    0.0016879500
  -0.0020136700    0.0007995200    0.0030686600
  -0.0004975500    0.0004200900    0.0000104500
   0.0008016400   -0.0009500900    0.0000686400
   0.0012818300   -0.0001438600   -0.0016879500
  -0.0020136700    0.0007995200   -0.0030686600
  -0.0004975500    0.0004200900   -0.0000104500
   0.0008016400   -0.0009500900   -0.0000686400
   0.0000373600   -0.0000445700    0.0000000000
  -0.0000429000    0.0000302800    0.0000000000
  -0.0000647500    0.0000319500    0.0000000000
   0.0000619900   -0.0000076500    0.0000000000
  -0.0071816200   -0.0067969100    0.0000000000
   0.0059256600   -0.0097451900    0.0000000000
   0.0021369800    0.0124349600    0.0000000000
   0.0000097100    0.0031934800    0.0000000000
  -0.0004403900   -0.0004577800    0.0013130900
   0.0003980700   -0.0005311600   -0.0001520500
   0.0000547100    0.0003329800   -0.0015029000
  -0.0000511600    0.0007476900    0.0000752400
  -0.0004403900   -0.0004577800   -0.0013130900
   0.0003980700   -0.0005311600    0.0001520500
   0.0000547100    0.0003329800    0.0015029000
  -0.0000511600    0.0007476900   -0.0000752400

13
  0.0000000000000000   0.0000000000000000   0.0100000000000000
   0.0000000000    0.0012235400    0.0812724200
   0.0000000000    0.0000083300    0.0001279900
   0.0000089600   -0.0000168700   -0.0002617000
  -0.0000089600   -0.0000168700   -0.0002617000
   0.0000000000    0.0015282100   -0.0003109400
   0.0000000000    0.0002070500   -0.0000563200
   0.0007956700   -0.0006482500    0.0000443300
  -0.0007956700   -0.0006482500    0.0000443300
   0.0000000000   -0.0014968200   -0.0003056900
   0.0000000000   -0.0002003200   -0.0000562900
  -0.0007830000    0.0006406300    0.0000435800
   0.0007830000    0.0006406300    0.0000435800
   0.0000000000   -0.0021726800   -0.0451227400
   0.0000000000   -0.0003846600   -0.0003585100
  -0.0000063800   -0.0003681700    0.0001552400
   0.0000063800   -0.0003681700    0.0001552400
   0.0000000000   -0.0012595500    0.0011561800
   0.0000000000   -0.0004830500    0.0002667800
  -0.0001486700    0.0000402000    0.0000470600
   0.0001486700    0.0000402000    0.0000470600
   0.0000000000    0.0004893700    0.0011752100
   0.0000000000   -0.0002877500    0.0002947500
   0.0001462300   -0.0007941400    0.0000797600
  -0.0001462300   -0.0007941400    0.0000797600
   0.0003833200    0.0003865400   -0.0277979900
   0.0003222800    0.0001862400   -0.0003546700
   0.0003252200    0.0001950800   -0.0003550400
   0.0003316600    0.0001947800   -0.0022683300
   0.0000684900   -0.0003332900    0.0002331300
   0.0003125200    0.0000426800    0.0001438100
  -0.0000349600    0.0002881000    0.0001444200
   0.0009670300    0.0006758300    0.0007275800
   0.0005796500    0.0007035600    0.0002626700
   0.0003438700    0.0003341800    0.0001746100
   0.0006804600    0.0000900700    0.0001745400
  -0.0003089200   -0.0002937700    0.0007506200
  -0.0003833200    0.0003865400   -0.0277979900
  -0.0003222800    0.0001862400   -0.0003546700
  -0.0003316600    0.0001947800   -0.0022683300
  -0.0003252200    0.0001950800   -0.0003550400
  -0.0000684900   -0.0003332900    0.0002331300
  -0.0003125200    0.0000426800    0.0001438100
  -0.0009670300    0.0006758300    0.0007275800
   0.0000349600    0.0002881000    0.0001444200
  -0.0005796500    0.0007035600    0.0002626700
  -0.0003438700    0.0003341800    0.0001746100
   0.0003089200   -0.0002937700    0.0007506200
  -0.0006804600    0.0000900700    0.0001745400
   0.0025315100    0.0000139000    0.0007142700
  -0.0025315100    0.0000139000    0.0007142700
   0.0000000000   -0.0002958600   -0.0005355500
   0.0000000000   -0.0005577700   -0.0003429700
  -0.0025676800   -0.0000159800    0.0007016300
   0.0025676800   -0.0000159800    0.0007016300
   0.0000000000    0.0003041400   -0.0005770900
   0.0000000000    0.0005652700   -0.0003652200
  -0.0000007400   -0.0000002800    0.0009981600
   0.0000007400   -0.0000002800    0.0009981600
   0.0000000000   -0.0000013900    0.0005889900
   0.0000000000   -0.0000004500    0.0006572800
  -0.0001313800   -0.0005540300    0.0002965800
   0.0001313800   -0.0005540300    0.0002965800
   0.0000000000    0.0002440100    0.0002797000
   0.0000000000   -0.0014911900    0.0036240500
   0.0001232200    0.0005613800    0.0003195500
  -0.0001232200    0.0005613800    0.0003195500
   0.0000000000   -0.0002455400    0.0002857800
   0.0000000000    0.0016538400    0.0038088700
   0.0000001600    0.0000021300   -0.0005761200
  -0.0000001600    0.0000021300   -0.0005761200
   0.0000000000    0.0000013800   -0.0005455300
   0.0000000000    0.0000009000   -0.0008594100
   0.0000223900    0.0000158800    0.0072505900
  -0.0000223900    0.0000158800    0.0072505900
   0.0000000000   -0.0000438400   -0.0005827300
   0.0000000000   -0.0000059700    0.0011858200
   0.0006096900    0.0000818500   -0.0016323500
  -0.0006096900    0.0000818500   -0.0016323500
   0.0000000000    0.0001644800   -0.0001714500
   0.0000000000   -0.0004246600   -0.0006430200
  -0.0006001100   -0.0000782100   -0.0015839600
   0.0006001100   -0.0000782100   -0.0015839600
   0.0000000000   -0.0001600600   -0.0001472800
   0.0000000000    0.0004209200   -0.0006070400

49
  0.0100000000000000   0.0000000000000000   0.0000000000000000
  -0.0017218900    0.0032237600   -0.0003888100
  -0.0017298100   -0.0031892800    0.0003861400
   0.0038288900    0.0000110500    0.0000014900
  -0.0017597100   -0.0000066100    0.0000000400
  -0.0000029600    0.0001203400    0.0000000000
  -0.0000128200   -0.0001199600    0.0000000000
   0.0001933400   -0.0000006500    0.0000000000
  -0.0001863600    0.0000064000    0.0000000000
  -0.0017218900    0.0032237600    0.0003888100
  -0.0017298100   -0.0031892800   -0.0003861400
   0.0038288900    0.0000110500   -0.0000014900
  -0.0017597100   -0.0000066100   -0.0000000400
   0.0014447100   -0.0021057800    0.0025348200
   0.0014428000    0.0012991400   -0.0025637100
  -0.0006049700   -0.0003963400   -0.0000274800
   0.0001917200   -0.0003846000   -0.0000286800
   0.0000017600   -0.0004550800    0.0000000000
   0.0000063000   -0.0002862600    0.0000000000
  -0.0000127900   -0.0003835800    0.0000000000
   0.0000101000   -0.0004169200    0.0000000000
   0.0014447100   -0.0021057800   -0.0025348200
   0.0014428000    0.0012991400    0.0025637100
  -0.0006049700   -0.0003963400    0.0000274800
   0.0001917200   -0.0003846000    0.0000286800
   0.0004782000   -0.0009291900    0.0012343600
   0.0016829400    0.0013169900    0.0002316900
  -0.0013073400   -0.0012193700   -0.0013160200
   0.0013942800    0.0006961500    0.0004602200
   0.0002982300    0.0001627900    0.0000000000
   0.0003989100    0.0002352900    0.0000000000
   0.0002377500    0.0001414300    0.0000000000
   0.0004359400    0.0002477900    0.0000000000
   0.0004782000   -0.0009291900   -0.0012343600
   0.0016829400    0.0013169900   -0.0002316900
  -0.0013073400   -0.0012193700    0.0013160200
   0.0013942800    0.0006961500   -0.0004602200
   0.0010194500   -0.0009426700   -0.0002876200
  -0.0001879300    0.0013235900   -0.0012894400
  -0.0019970600    0.0016033000    0.0012583600
   0.0007095700   -0.0002976900   -0.0005111100
  -0.0003080000    0.0001681700    0.0000000000
  -0.0003903800    0.0002356400    0.0000000000
  -0.0004521800    0.0002541900    0.0000000000
  -0.0002059500    0.0001270500    0.0000000000
   0.0010194500   -0.0009426700    0.0002876200
  -0.0001879300    0.0013235900    0.0012894400
  -0.0019970600    0.0016033000   -0.0012583600
   0.0007095700   -0.0002976900    0.0005111100
  -0.0140999000   -0.0000709600    0.0000000000
   0.0015199600   -0.0000013000    0.0000000000
   0.0000227800   -0.0008644900    0.0000000000
   0.0000229500    0.0008608000    0.0000000000
   0.0000061000   -0.0000020300   -0.0000325600
   0.0003499000   -0.0000017600   -0.0000130900
   0.0000213200   -0.0001915800    0.0000627000
   0.0000223000    0.0001874200   -0.0000905300
   0.0000061000   -0.0000020300    0.0000325600
   0.0003499000   -0.0000017600    0.0000130900
   0.0000213200   -0.0001915800   -0.0000627000
   0.0000223000    0.0001874200    0.0000905300
   0.0020184500   -0.0000044300    0.0000000000
  -0.0006138400    0.0000019200    0.0000000000
  -0.0008393800    0.0016451200    0.0000000000
  -0.0007321900   -0.0015923000    0.0000000000
   0.0003237400   -0.0000018300   -0.0000019400
  -0.0002712200    0.0000010700   -0.0000025900
  -0.0000272400    0.0002022400    0.0003419400
  -0.0000230300   -0.0002008700   -0.0003492800
   0.0003237400   -0.0000018300    0.0000019400
  -0.0002712200    0.0000010700    0.0000025900
  -0.0000272400    0.0002022400   -0.0003419400
  -0.0000230300   -0.0002008700    0.0003492800
   0.0056568300   -0.0000007100   -0.0001135800
  -0.0023291100    0.0000012000   -0.0000472500
  -0.0001279400    0.0012728300    0.0001358500
  -0.0001253300   -0.0012730500   -0.0002227900
   0.0001902300   -0.0000008600    0.0000000000
  -0.0002162100   -0.0000004000    0.0000000000
  -0.0000015800    0.0001239800    0.0000000000
  -0.0000024300   -0.0001244800    0.0000000000
   0.0056568300   -0.0000007100    0.0001135800
  -0.0023291100    0.0000012000    0.0000472500
  -0.0001279400    0.0012728300   -0.0001358500
  -0.0001253300   -0.0012730500    0.0002227900

49
  0.0000000000000000   0.0000000000000000   0.0100000000000000
  -0.0039742100    0.0022945100    0.0001010700
   0.0039742200    0.0022945100    0.0001010700
   0.0000000000   -0.0045890300    0.0001010700
   0.0000000000    0.0000000000   -0.0000077300
  -0.0000104500    0.0000060300   -0.0002076300
   0.0000104500    0.0000060300   -0.0002076300
   0.0000000000   -0.0000120600   -0.0002076300
   0.0000000000    0.0000000000   -0.0000159200
   0.0039742900   -0.0022945500    0.0000940300
  -0.0039742900   -0.0022945500    0.0000940300
   0.0000000000    0.0045891100    0.0000940300
   0.0000000000    0.0000000000   -0.0000041500
   0.0035309000   -0.0014150300    0.0006776300
  -0.0035309000   -0.0014150300    0.0006776300
   0.0000000000    0.0025307600   -0.0005749500
   0.0000000000   -0.0004542000   -0.0003768300
   0.0000064200   -0.0003752900    0.0009799200
  -0.0000064200   -0.0003752900    0.0009799200
   0.0000000000   -0.0003717900    0.0005704900
   0.0000000000   -0.0003617400    0.0006391500
  -0.0035098700    0.0006671600    0.0007592400
   0.0035098700    0.0006671600    0.0007592400
   0.0000000000   -0.0032727800   -0.0005167700
   0.0000000000   -0.0002968200   -0.0003105300
   0.0029909000   -0.0023503400    0.0006776300
  -0.0021917000   -0.0012653800   -0.0005749500
  -0.0005400000    0.0037653700    0.0006776300
   0.0003933500    0.0002271000   -0.0003768300
   0.0003282200    0.0001820800    0.0009799200
   0.0003219800    0.0001858900    0.0005704900
   0.0003218000    0.0001932100    0.0009799200
   0.0003132800    0.0001808700    0.0006391500
  -0.0023327100    0.0027060600    0.0007592400
   0.0028343100    0.0016363900   -0.0005167700
   0.0011771600   -0.0033732200    0.0007592400
   0.0002570500    0.0001484100   -0.0003105300
   0.0021917000   -0.0012653800   -0.0005749500
  -0.0029909000   -0.0023503400    0.0006776300
   0.0005400000    0.0037653700    0.0006776300
  -0.0003933500    0.0002271000   -0.0003768300
  -0.0003219800    0.0001858900    0.0005704900
  -0.0003282200    0.0001820800    0.0009799200
  -0.0003218000    0.0001932100    0.0009799200
  -0.0003132800    0.0001808700    0.0006391500
  -0.0028343100    0.0016363900   -0.0005167700
   0.0023327100    0.0027060600    0.0007592400
  -0.0011771600   -0.0033732200    0.0007592400
  -0.0002570500    0.0001484100   -0.0003105300
   0.0000000000    0.0000000000   -0.0914884200
   0.0000000000    0.0000029400   -0.0023485700
  -0.0000025500   -0.0000014700   -0.0023485700
   0.0000025500   -0.0000014700   -0.0023485700
   0.0000000000    0.0000000000    0.0097775500
   0.0000000000    0.0000897900    0.0011617700
  -0.0000777600   -0.0000449000    0.0011617700
   0.0000777600   -0.0000449000    0.0011617700
   0.0000000000    0.0000000000    0.0096934400
   0.0000000000   -0.0000890900    0.0012029300
   0.0000771500    0.0000445500    0.0012029300
  -0.0000771500    0.0000445500    0.0012029300
   0.0000000000   -0.0000229400    0.0041468900
   0.0000000000    0.0000000000    0.0023750300
  -0.0000198700    0.0000114700    0.0041468900
   0.0000198700    0.0000114700    0.0041468900
   0.0000000000    0.0008957300   -0.0014489600
   0.0000000000    0.0000000000   -0.0011838500
   0.0007757300   -0.0004478700   -0.0014489600
  -0.0007757300   -0.0004478700   -0.0014489600
   0.0000000000   -0.0008833100   -0.0014489200
   0.0000000000    0.0000000000   -0.0011859200
  -0.0007649700    0.0004416600   -0.0014489200
   0.0007649700    0.0004416600   -0.0014489200
   0.0000000000    0.0000000000    0.0317972800
   0.0000000000   -0.0008356800    0.0010199900
   0.0007237200    0.0004178400    0.0010199900
  -0.0007237200    0.0004178400    0.0010199900
   0.0000000000    0.0000000000   -0.0059093300
   0.0000000000   -0.0000012500   -0.0020698000
   0.0000010800    0.0000006300   -0.0020698000
  -0.0000010800    0.0000006300   -0.0020698000
   0.0000000000    0.0000000000    0.0295044200
   0.0000000000    0.0008308800    0.0010822700
  -0.0007195600   -0.0004154400    0.0010822700
   0.0007195600   -0.0004154400    0.0010822700

61
  0.0100000000000000   0.0000000000000000   0.0000000000000000
   0.0040522300    0.0030174600    0.0013927800
   0.0040740500   -0.0030168200   -0.0013662400
   0.0009563700   -0.0000044300   -0.0000006400
  -0.0011473900    0.0000160300   -0.0000019100
   0.0000348300    0.0000808300    0.0000000000
   0.0000182700   -0.0000707700    0.0000000000
   0.0001053700    0.0000001000    0.0000000000
  -0.0001198000    0.0000193700    0.0000000000
   0.0040522300    0.0030174600   -0.0013927800
   0.0040740500   -0.0030168200    0.0013662400
   0.0009563700   -0.0000044300    0.0000006400
  -0.0011473900    0.0000160300    0.0000019100
  -0.0007207900   -0.0022851700   -0.0001592000
  -0.0007261200    0.0015183400    0.0000950400
  -0.0010023500   -0.0003849200   -0.0000309500
   0.0016087400   -0.0003871500   -0.0000357900
  -0.0000043700   -0.0004365400    0.0000000000
  -0.0000037500   -0.0003413000    0.0000000000
  -0.0001290900   -0.0003891700    0.0000000000
   0.0001260200   -0.0003953900    0.0000000000
  -0.0007207900   -0.0022851700    0.0001592000
  -0.0007261200    0.0015183400   -0.0000950400
  -0.0010023500   -0.0003849200    0.0000309500
   0.0016087400   -0.0003871500    0.0000357900
   0.0016306000    0.0000148900    0.0013841500