96   
10   

1    
  0.0100000000000000   0.0000000000000000   0.0000000000000000
  -0.1540252500   -0.0821926900    0.0166036800
   0.0050561600    0.0004486500    0.0005364000
  -0.0016900600    0.0005571000   -0.0004427300
   0.0016393000    0.0009852000    0.0003542000
  -0.0051549600   -0.0007747600    0.0058329800
   0.0034629800   -0.0012756000   -0.0006442000
  -0.0008383200    0.0007603400    0.0001498100
   0.0008290000    0.0002020900   -0.0005825300
  -0.0007525600   -0.0013223700   -0.0012367100
   0.0041391800    0.0023697100    0.0076625600
  -0.0004980800    0.0011503700   -0.0009651100
   0.0005349900   -0.0006256700    0.0003920200
   0.0026865600   -0.0096448800   -0.0010745500
   0.0063360900    0.0040964000   -0.0040963700
   0.0037099300    0.0083217700   -0.0005436400
   0.0009350500   -0.0012790700   -0.0003308400
  -0.0009187300    0.0002152200    0.0010847400
   0.0012993700    0.0002473900    0.0001858300
  -0.0009242000   -0.0002666500    0.0004616000
   0.0013126000    0.0007783400   -0.0002758400
  -0.0048062100    0.0044712400    0.0014641100
   0.0024183400   -0.0010444300   -0.0001004600
  -0.0035205300   -0.0032092900    0.0016879300
   0.0022913200   -0.0001726800    0.0000990300
   0.0141483700    0.0031918100   -0.0145727900
   0.0054753200   -0.0044538200    0.0037855800
  -0.0004793600    0.0001764000   -0.0008895700
   0.0002425300    0.0010311200    0.0000991100
  -0.0013941300   -0.0005497100   -0.0007521900
   0.0008465800   -0.0005409500    0.0010866400
  -0.0003531500    0.0002408000   -0.0002252100
   0.0006198300    0.0004464500    0.0003326200
   0.0001842200   -0.0002812500    0.0002452700
  -0.0002171500    0.0001109300    0.0008777200
  -0.0002278900    0.0001888800   -0.0001642200
   0.0001869400   -0.0000919100    0.0002204000
   0.0020077000   -0.0023569300    0.0008759200
   0.0003765200    0.0006151400   -0.0013959200
  -0.0007832700    0.0013286600    0.0015857000
   0.0007450100   -0.0011439500   -0.0010183900
  -0.0056987900    0.0007684100   -0.0020051600
   0.0043648100   -0.0007674900    0.0017629500
  -0.0014155000    0.0012777100   -0.0008342000
   0.0009378200   -0.0002063800    0.0003244800
  -0.0006766500   -0.0002413800    0.0009367000
   0.0006634500   -0.0002635600   -0.0002596200
  -0.0004212900    0.0001168100    0.0004454000
   0.0004501600    0.0003285900   -0.0001134700
   0.0267629000    0.0013113500    0.0118092200
   0.0262516800    0.0018757800   -0.0141889300
   0.0004664900    0.0001155800    0.0006560500
   0.0004804500    0.0010897300   -0.0003376100
   0.0001233500    0.0004386600    0.0017392900
   0.0001668900   -0.0004803000   -0.0011503100
  -0.0002071400    0.0001571400    0.0003014400
   0.0001453500    0.0000538000   -0.0000172700
  -0.0022255000   -0.0004406800    0.0013596300
   0.0012608900   -0.0001529800   -0.0006387900
  -0.0007650800    0.0004721500    0.0000890200
   0.0006817000   -0.0000551800    0.0000200700
  -0.0013957400    0.0089153600   -0.0072074800
   0.0034828800   -0.0003116500    0.0011755700
  -0.0027813200   -0.0039097700   -0.0016305200
   0.0021083000    0.0012022400    0.0005767200
   0.0059588500    0.0008858900    0.0032087100
  -0.0040429200   -0.0031677400   -0.0014399500
   0.0480146600    0.0470454400   -0.0274264500
  -0.0065075200    0.0025422700    0.0005579600
   0.0049543500    0.0008136000    0.0004516400
  -0.0046275500    0.0016304400   -0.0015559200
   0.0021948800   -0.0005941000    0.0003923100
  -0.0017183400   -0.0004065200   -0.0002721600
   0.0015451900   -0.0001759400   -0.0004083200
  -0.0014990700    0.0009851900   -0.0008413700
   0.0005305600   -0.0001935600   -0.0000388700
  -0.0007110100   -0.0005312200   -0.0002822800
   0.0000899000   -0.0022241000    0.0022492700
  -0.0023856500    0.0006317500   -0.0006563900
   0.0018501600    0.0078039000    0.0097347800
  -0.0054469400   -0.0067049200   -0.0052875400
   0.0297528500    0.0148642100    0.0087186700
  -0.0101232600    0.0075249100    0.0026301200
   0.0010965400    0.0003418400   -0.0002580700
  -0.0043183500   -0.0028269000    0.0021594500
   0.0010649000   -0.0027537900   -0.0023491100
  -0.0010703300   -0.0000942400    0.0007567100
   0.0011139000    0.0026514500   -0.0032251700
  -0.0036520800   -0.0023991100    0.0046091500
   0.0015324300    0.0005639900   -0.0010003900
  -0.0013515500   -0.0007262700   -0.0000153300
   0.0023828700   -0.0001903200   -0.0011156600
  -0.0021714800    0.0002952900   -0.0000036900
   0.0167853800    0.0060716200   -0.0005238800
  -0.0088216200   -0.0012360600    0.0039893400
   0.0046744800   -0.0023766400   -0.0020003600
  -0.0027544000   -0.0000517300    0.0001170700

1    
 -0.0100000000000000   0.0000000000000000   0.0000000000000000
   0.1549517500    0.0821334300   -0.0151000500
  -0.0050468700   -0.0004455800   -0.0005353800
   0.0017124700   -0.0005692700    0.0004589400
  -0.0016168600   -0.0009894900   -0.0003423600
   0.0052371300    0.0007655900   -0.0057665300
  -0.0034817300    0.0012591300    0.0006577800
   0.0008452600   -0.0008140500   -0.0001240300
  -0.0008271700   -0.0002278400    0.0005974600
   0.0007366200    0.0013563000    0.0012424200
  -0.0041867900   -0.0023850900   -0.0077558100
   0.0004799800   -0.0011204400    0.0009795400
  -0.0005167000    0.0006496300   -0.0003783500
  -0.0027340600    0.0096057300    0.0011139100
  -0.0064282500   -0.0041340900    0.0041502900
  -0.0037202900   -0.0082503300    0.0005614300
  -0.0009500100    0.0012909800    0.0003432800
   0.0009519100   -0.0002012400   -0.0010978300
  -0.0012896900   -0.0002583200   -0.0002131800
   0.0009508400    0.0002697000   -0.0004638900
  -0.0012839700   -0.0007728300    0.0002644200
   0.0048701300   -0.0045212800   -0.0014894200
  -0.0024266300    0.0010143600    0.0000877600
   0.0035789300    0.0031036500   -0.0016343400
  -0.0022936600    0.0001548900   -0.0001106600
  -0.0140073400   -0.0031240500    0.0143573200
  -0.0055414900    0.0045480000   -0.0038614700
   0.0004809100   -0.0001560100    0.0008769600
  -0.0002326100   -0.0010277200   -0.0001117100
   0.0013577500    0.0005379200    0.0007374400
  -0.0008610100    0.0005568400   -0.0011162800
   0.0003237300   -0.0002463500    0.0002100900
  -0.0006439700   -0.0004507500   -0.0003467000
  -0.0001675900    0.0002840100   -0.0002353100
   0.0002531900   -0.0001027200   -0.0008776200
   0.0002483900   -0.0001829500    0.0001686500
  -0.0001595000    0.0000892700   -0.0001991700
  -0.0020591300    0.0023926800   -0.0008642300
  -0.0003533500   -0.0006569000    0.0014117000
   0.0007767000   -0.0013523600   -0.0015731400
  -0.0007375400    0.0011291300    0.0010370000
   0.0057435900   -0.0007701300    0.0019131900
  -0.0043537600    0.0008055400   -0.0017228600
   0.0014190500   -0.0012587500    0.0008489400
  -0.0009423100    0.0002315300   -0.0003096800
   0.0006558400    0.0002347000   -0.0009343000
  -0.0006998400    0.0002530300    0.0002674400
   0.0004034900   -0.0001142100   -0.0004318400
  -0.0004782600   -0.0003326800    0.0001266100
  -0.0262343600   -0.0012968200   -0.0115695500
  -0.0267434400   -0.0019183200    0.0144406800
  -0.0004515000   -0.0001162100   -0.0006633700
  -0.0004470100   -0.0010987400    0.0003245700
  -0.0001434900   -0.0004782000   -0.0017696800
  -0.0001420000    0.0004506600    0.0011530200
   0.0002117600   -0.0001811800   -0.0003146800
  -0.0001446400   -0.0000765500    0.0000005200
   0.0022214200    0.0004788700   -0.0013735500
  -0.0012757100    0.0001764700    0.0006392200
   0.0007708800   -0.0004587700   -0.0001112100
  -0.0006879700    0.0000838100   -0.0000326100
   0.0014081400   -0.0089984300    0.0072617800
  -0.0035307900    0.0002950400   -0.0011957100
   0.0027945300    0.0038549400    0.0015883900
  -0.0021404200   -0.0012004400   -0.0005888800
  -0.0059776600   -0.0008974800   -0.0032317500
   0.0040617900    0.0032073900    0.0014556600
  -0.0477119700   -0.0453105500    0.0262972700
   0.0065302000   -0.0025785200   -0.0005715200
  -0.0049348900   -0.0008285900   -0.0004611400
   0.0046569000   -0.0016419800    0.0015816400
  -0.0021756700    0.0006092100   -0.0004035500
   0.0017173500    0.0004098300    0.0002691900
  -0.0015741800    0.0001628300    0.0004147400
   0.0015232500   -0.0009848300    0.0008496200
  -0.0005449400    0.0002027500    0.0000425300
   0.0007182000    0.0005311400    0.0002837600
  -0.0000972800    0.0022332300   -0.0022619200
   0.0024243800   -0.0006334600    0.0006366900
  -0.0019869000   -0.0077884200   -0.0096941200
   0.0054770300    0.0066700900    0.0052805300
  -0.0311877200   -0.0162214700   -0.0096025100
   0.0101632500   -0.0075003400   -0.0026232000
  -0.0011497300   -0.0002731700    0.0002747400
   0.0043369200    0.0028289800   -0.0021612500
  -0.0010880800    0.0027880300    0.0023679600
   0.0010835100    0.0001008900   -0.0007535400
  -0.0011829900   -0.0026802500    0.0032118900
   0.0036653300    0.0023852600   -0.0046030700
  -0.0015417900   -0.0005694100    0.0010169300
   0.0013551100    0.0007338600    0.0000142600
  -0.0023579600    0.0002054800    0.0011374700
   0.0021682800   -0.0003062000    0.0000004200
  -0.0167231400   -0.0062780700    0.0007649700
   0.0088500200    0.0012529900   -0.0040238500
  -0.0046479300    0.0024002800    0.0020064900
   0.0027486300    0.0000537700   -0.0001207500

1    
  0.0000000000000000   0.0100000000000000   0.0000000000000000
  -0.0833188700   -0.1709567400    0.0678734000
   0.0004703200   -0.0008661600    0.0003541000
   0.0005744600    0.0043021000   -0.0000797900
   0.0010018600    0.0014456700    0.0004046600
  -0.0006579600   -0.0057347400    0.0035876700
   0.0014139700   -0.0014241700    0.0001111600
  -0.0004932800    0.0043404600   -0.0014341400
   0.0001976800    0.0009219700   -0.0008530400
  -0.0006721800   -0.0007571700    0.0005126900
   0.0033886800    0.0020359600    0.0066698100
   0.0011689900    0.0007565900   -0.0013913500
  -0.0017749500    0.0003697800   -0.0007315100
  -0.0095757200    0.0093318100    0.0016523300
   0.0041137300    0.0036536100   -0.0025350300
   0.0083519900    0.0096518100   -0.0009521400
  -0.0013120300   -0.0005012100    0.0002482000
  -0.0002465900   -0.0001690300    0.0002471300
   0.0007820600    0.0001588100    0.0003016400
   0.0002276600   -0.0001770900   -0.0019514800
   0.0002630700    0.0001576200   -0.0004804900
  -0.0006388300    0.0054712800    0.0039045600
   0.0006895200    0.0002296600    0.0004574900
  -0.0072392200    0.0141772900   -0.0138086400
   0.0008291400   -0.0005052400   -0.0001640000
   0.0071649700   -0.0035764100   -0.0042507600
   0.0006295100   -0.0048162700    0.0012461700
  -0.0008232000    0.0023078000    0.0001655700
  -0.0006965000    0.0024367500   -0.0004497100
  -0.0005569900   -0.0008722700   -0.0005168400
  -0.0005619500   -0.0013350200    0.0001542100
   0.0002224400    0.0009333600   -0.0004563100
   0.0004370800    0.0010186700   -0.0002444600
  -0.0000737800    0.0000843100   -0.0004186200
   0.0002098000    0.0001340200    0.0001979100
   0.0001184600    0.0001234200   -0.0002936300
  -0.0002732400    0.0000741000   -0.0002440200
  -0.0034030800    0.0041568000   -0.0009394700
   0.0017653900    0.0005161100   -0.0017278500
   0.0006648500   -0.0007629000    0.0014170600
  -0.0011687300   -0.0005179100    0.0007958400
   0.0006701200   -0.0052025400    0.0046120300
   0.0005000900   -0.0008309300   -0.0000451100
  -0.0014208000    0.0034879800   -0.0006078800
  -0.0001988800    0.0008391200    0.0003508200
  -0.0002537000   -0.0009738700    0.0001984700
  -0.0002703900   -0.0006693600   -0.0005455600
   0.0001052100    0.0008821200   -0.0000483300
   0.0003086500    0.0005588300   -0.0001168300
   0.0018502700   -0.0068880100    0.0025814700
   0.0014083600   -0.0068371000   -0.0016269900
   0.0011108000    0.0037066600    0.0004833700
   0.0001260500    0.0036997000    0.0007116300
  -0.0010710100   -0.0022308400   -0.0019877600
   0.0000812300   -0.0007849800   -0.0004796800
   0.0000327600    0.0012551400    0.0005149000
  -0.0001432100    0.0006667800    0.0001499000
   0.0010757100    0.0001465200   -0.0021688900
  -0.0000307300   -0.0001868900   -0.0002077300
  -0.0000742800    0.0001615500    0.0009680200
   0.0001411600    0.0001546700    0.0000277500
   0.0088647200    0.0199233800   -0.0088964700
  -0.0003137700   -0.0003928300   -0.0001822500
  -0.0039415300    0.0146690700    0.0070018400
   0.0011938400   -0.0000106900    0.0008005300
   0.0010375200   -0.0084423700   -0.0017851100
  -0.0017118600   -0.0037743100   -0.0012615600
   0.0472331300    0.0891184800   -0.0490192200
  -0.0006218300    0.0024845200    0.0001728400
   0.0015079500    0.0018620900   -0.0011944100
  -0.0023929700    0.0025646700   -0.0011290100
  -0.0012715500   -0.0032102800    0.0027695400
   0.0000693500   -0.0012417000    0.0008497800
  -0.0002075300    0.0021246800    0.0006836400
   0.0006921200    0.0006165500    0.0009183700
   0.0004646200   -0.0013555200   -0.0001368100
  -0.0002894800   -0.0009015200    0.0000823100
  -0.0029023600   -0.0068444200    0.0036211000
   0.0018110700   -0.0028920600   -0.0004133400
   0.0096235700    0.0045705000   -0.0095495600
  -0.0021352400    0.0020003600   -0.0017064700
   0.0144838800    0.0241107200    0.0023862000
   0.0015594900    0.0066471000   -0.0030853500
   0.0066192500   -0.0106934200   -0.0010894800
  -0.0049266700   -0.0047369000    0.0024620500
   0.0003882900   -0.0043538100   -0.0017551200
  -0.0000647800   -0.0015494200    0.0000017800
   0.0041173800    0.0056652000    0.0045317800
  -0.0020060600    0.0003674900    0.0028326700
   0.0002915500   -0.0021579100    0.0015335000
  -0.0006440900   -0.0014651800    0.0005006800
  -0.0008999800    0.0018536900   -0.0001428200
   0.0000676500    0.0011667200    0.0002049500
   0.0036739700    0.0149558400   -0.0034449800
  -0.0019564800    0.0021099000    0.0012611900
  -0.0025829100   -0.0078604200   -0.0062941400
   0.0000237800   -0.0017001900   -0.0006705200

1    
  0.0000000000000000  -0.0100000000000000   0.0000000000000000
   0.0810307500    0.1678942200   -0.0647739300
  -0.0004363600    0.0008740000   -0.0003397600
  -0.0005478100   -0.0042993900    0.0000906200
  -0.0009748200   -0.0014430200   -0.0003879200
   0.0006974400    0.0057127100   -0.0034724900
  -0.0014315800    0.0014145200   -0.0000861300
   0.0005017500   -0.0043650100    0.0014393500
  -0.0001968600   -0.0009442500    0.0008596600
   0.0006599200    0.0008011700   -0.0005013300
  -0.0033967500   -0.0020401000   -0.0066923700
  -0.0011664700   -0.0007377000    0.0013920400
   0.0017645400   -0.0003509900    0.0007387400
   0.0096772100   -0.0094050400   -0.0016371400
  -0.0041203500   -0.0036587100    0.0025366100
  -0.0082234400   -0.0094603700    0.0009585900
   0.0012712300    0.0004766300   -0.0002379000
   0.0002791600    0.0001923400   -0.0002538000
  -0.0007683400   -0.0001645400   -0.0003259400
  -0.0001982900    0.0001720600    0.0019312700
  -0.0002445700   -0.0001630300    0.0004641100
   0.0006251300   -0.0055305100   -0.0039605400
  -0.0007017000   -0.0002435500   -0.0004696600
   0.0071179400   -0.0139796200    0.0135275000
  -0.0008206300    0.0004580700    0.0001510100
  -0.0071971200    0.0035245600    0.0042694500
  -0.0006308200    0.0048604200   -0.0012536800
   0.0008260100   -0.0022794000   -0.0001902800
   0.0006944500   -0.0024074400    0.0004317300
   0.0005262900    0.0008630000    0.0005121200
   0.0005425100    0.0013395100   -0.0001773700
  -0.0002476800   -0.0009378600    0.0004432600
  -0.0004635800   -0.0010176700    0.0002256900
   0.0001060300   -0.0000686100    0.0004269000
  -0.0001763500   -0.0001187600   -0.0001960400
  -0.0000948800   -0.0001270100    0.0003064800
   0.0002918400   -0.0000858200    0.0002614500
   0.0033833100   -0.0041627600    0.0009575000
  -0.0017811000   -0.0005324000    0.0017496200
  -0.0006657800    0.0007254100   -0.0013879500
   0.0011764700    0.0004718800   -0.0007840100
  -0.0006831200    0.0051884900   -0.0047446300
  -0.0005064300    0.0008450100    0.0000491100
   0.0014275400   -0.0034648600    0.0006394200
   0.0001983100   -0.0008112100   -0.0003306700
   0.0002253400    0.0009613100   -0.0001950000
   0.0002379100    0.0006622700    0.0005531100
  -0.0001244600   -0.0008733900    0.0000692000
  -0.0003409000   -0.0005650500    0.0001245100
  -0.0019498800    0.0068481000   -0.0026611700
  -0.0012041700    0.0068901100    0.0015478600
  -0.0010764700   -0.0036924900   -0.0004939300
  -0.0001176600   -0.0036975100   -0.0007131300
   0.0010933000    0.0022173800    0.0019983700
  -0.0000643400    0.0007540600    0.0004657600
  -0.0000218700   -0.0012833300   -0.0005164200
   0.0001357400   -0.0006881100   -0.0001659700
  -0.0010835100   -0.0001145100    0.0021625500
   0.0000209600    0.0002266400    0.0001936700
   0.0000770900   -0.0001543600   -0.0009754700
  -0.0001405800   -0.0001316000   -0.0000355200
  -0.0090507400   -0.0202651600    0.0090457500
   0.0003027000    0.0004142300    0.0001675500
   0.0038303600   -0.0144317500   -0.0068977900
  -0.0012072600    0.0000033700   -0.0008141100
  -0.0010599100    0.0084356700    0.0017878000
   0.0017172500    0.0037596600    0.0012611100
  -0.0441813600   -0.0855806800    0.0459171800
   0.0006221500   -0.0024616200   -0.0001807000
  -0.0014897700   -0.0018971000    0.0011727500
   0.0024060100   -0.0025778000    0.0011309200
   0.0012650300    0.0032102300   -0.0027558800
  -0.0000636600    0.0012445200   -0.0008431700
   0.0001983600   -0.0021450100   -0.0006779900
  -0.0006999800   -0.0006188100   -0.0009171200
  -0.0004629400    0.0013629900    0.0001319300
   0.0002836300    0.0009108300   -0.0000858900
   0.0029123700    0.0068253800   -0.0036357300
  -0.0018153600    0.0028708500    0.0004018300
  -0.0096598100   -0.0044272000    0.0095729700
   0.0021375100   -0.0019433100    0.0017157500
  -0.0154004300   -0.0244560300   -0.0027446100
  -0.0015239100   -0.0067007500    0.0030785300
  -0.0065831300    0.0106742000    0.0011015900
   0.0048895000    0.0047306000   -0.0024294300
  -0.0003852200    0.0043532000    0.0017749400
   0.0000634600    0.0015369300   -0.0000001300
  -0.0041245200   -0.0056072400   -0.0045163200
   0.0020228700   -0.0003408200   -0.0028512600
  -0.0002974900    0.0021475800   -0.0015379900
   0.0006486600    0.0014581000   -0.0005035100
   0.0009252100   -0.0018235900    0.0001538700
  -0.0000655400   -0.0011557500   -0.0001940500
  -0.0034292500   -0.0152885900    0.0039995400
   0.0019451600   -0.0021438700   -0.0012443700
   0.0025570900    0.0078375400    0.0062430700
  -0.0000165400    0.0017153200    0.0006558500

1    
  0.0000000000000000   0.0000000000000000   0.0100000000000000
   0.0152027000    0.0659052800   -0.1440040900
   0.0005524500    0.0003559200   -0.0021248300
  -0.0004340900   -0.0000876500   -0.0018760700
   0.0003573100    0.0003941800   -0.0007237800
   0.0046178700    0.0019165200    0.0234728000
  -0.0006189800    0.0008274400    0.0003210600
  -0.0000396900   -0.0017596800    0.0009852600
   0.0003428700   -0.0003304800   -0.0000026100
  -0.0013994900    0.0015910300    0.0002220700
   0.0009595100    0.0008899100    0.0014148600
  -0.0007944500   -0.0010154500    0.0002925200
   0.0017350800   -0.0013881500    0.0001561100
   0.0010629100   -0.0016203900   -0.0056595000
   0.0041022100    0.0025361800   -0.0047041600
   0.0005203400    0.0009314000   -0.0031712500
   0.0003266800   -0.0002526700   -0.0017547400
  -0.0004554300    0.0019352400    0.0026979800
   0.0002897900    0.0004738000    0.0008638200
  -0.0010767400   -0.0002412300    0.0027079000
  -0.0001874400   -0.0003104200    0.0008614600
  -0.0012488800    0.0038134200    0.0001883900
   0.0004423400    0.0000933000   -0.0002567500
   0.0042438600   -0.0144151200    0.0061632400
  -0.0001735800   -0.0008997900   -0.0008712400
  -0.0136122200   -0.0016445200    0.0061663000
   0.0039286200   -0.0014649500    0.0001930600
  -0.0001601900   -0.0000959800   -0.0008723700
   0.0004670300    0.0001062200   -0.0002559200
  -0.0007509500   -0.0005115400    0.0027391600
   0.0010878800    0.0001626400    0.0018321000
  -0.0002295500   -0.0004584800    0.0009709200
   0.0003264100   -0.0002348000    0.0008664300
   0.0002217900   -0.0002546000    0.0017012200
  -0.0001608500   -0.0003009600    0.0015151900
   0.0008981400    0.0002030300    0.0015166700
   0.0002532700   -0.0004188000    0.0016912700
   0.0067392000   -0.0077854500    0.0013953200
  -0.0007367400   -0.0003981600    0.0001498200
   0.0005124300    0.0012303600    0.0002048900
  -0.0013892500    0.0009661300    0.0002827100
  -0.0035634500    0.0058738900    0.0239711400
   0.0014311600    0.0001482600    0.0009773400
  -0.0001008600   -0.0006443400    0.0003186100
   0.0008557900   -0.0005763200   -0.0000097100
  -0.0009506700   -0.0001925600    0.0055118900
   0.0002527200    0.0005534100    0.0015191500
  -0.0004559500    0.0000543900    0.0013405700
   0.0001124800    0.0001210600    0.0007477900
   0.0143622000    0.0015964200   -0.0012115900
  -0.0116718500   -0.0026128300   -0.0012174500
   0.0003434600   -0.0007146300   -0.0011901000
  -0.0006510100   -0.0004937600   -0.0011874700
   0.0021752300    0.0013629800    0.0034556300
  -0.0009790800    0.0000870000    0.0012053100
   0.0002001800   -0.0006595200    0.0008779100
  -0.0000321700    0.0000169900    0.0005093000
  -0.0020023000   -0.0017463500    0.0034621000
   0.0005200600   -0.0003004800    0.0008775400
  -0.0004800400    0.0011750300    0.0012059300
   0.0001597100    0.0000194800    0.0005068200
  -0.0072751600   -0.0090178900   -0.0024938000
   0.0011748800   -0.0001784100   -0.0013095400
  -0.0016171400    0.0069326800   -0.0018621900
   0.0005689000    0.0008063900   -0.0007191300
   0.0022050300   -0.0003096600    0.0039392500
  -0.0015237200   -0.0013456300    0.0004063800
  -0.0292497900   -0.0516862800    0.0545563800
  -0.0018909100    0.0003190800    0.0037219900
   0.0058520500   -0.0044757400   -0.0062876900
  -0.0013214800   -0.0009143500   -0.0017701600
   0.0017807700    0.0018517100   -0.0024846000
  -0.0010181600    0.0008383800   -0.0011349200
   0.0021773700    0.0006582500   -0.0046275800
  -0.0017801000    0.0000961000   -0.0031870100
   0.0008526500   -0.0000746800   -0.0021032500
  -0.0007239100    0.0000766000   -0.0014819400
   0.0023904400    0.0018514900   -0.0002650700
  -0.0030356200    0.0016124300    0.0026846000
   0.0121671400   -0.0081677900   -0.0018250800
  -0.0030931800   -0.0040350600   -0.0011583000
   0.0073710300    0.0032373900    0.0267328600
   0.0009401100   -0.0028674200    0.0078460100
  -0.0021877700    0.0042121900    0.0072015000
  -0.0003321500    0.0008576000    0.0024717300
  -0.0009854800   -0.0010828900   -0.0025728500
   0.0000712000   -0.0005365200   -0.0012720100
  -0.0054019300    0.0035626100   -0.0082659500
   0.0022417200    0.0021970200   -0.0045290700
   0.0010227500    0.0016026100   -0.0045319500
  -0.0003890800    0.0004153800   -0.0018902800
  -0.0025147700   -0.0032745400   -0.0077885000
  -0.0001998100   -0.0004918500   -0.0030065800
  -0.0008590700    0.0054281700    0.0171826900
   0.0005510100    0.0023613800    0.0009521900
  -0.0010821000   -0.0015857100    0.0007710100
  -0.0001334900   -0.0003838700    0.0011349300

1    
  0.0000000000000000   0.0000000000000000  -0.0100000000000000
  -0.0165003500   -0.0667059100    0.1433151000
  -0.0005127900   -0.0003375400    0.0021277600
   0.0004655500    0.0000862500    0.0018798600
  -0.0003380700   -0.0003963000    0.0007346300
  -0.0047400600   -0.0020040300   -0.0239194300
   0.0006207000   -0.0008500400   -0.0003026200
   0.0000541700    0.0017232700   -0.0009687400
  -0.0003387200    0.0002987600    0.0000195700
   0.0014012700   -0.0015676100   -0.0001986500
  -0.0009318000   -0.0008484600   -0.0013403400
   0.0007846600    0.0010419200   -0.0002681000
  -0.0017457000    0.0014187600   -0.0001343100
  -0.0011261200    0.0016627400    0.0056284600
  -0.0041440200   -0.0025408600    0.0047180000
  -0.0005831200   -0.0009800100    0.0031870600
  -0.0003541700    0.0002329400    0.0017569300
   0.0004761300   -0.0019544600   -0.0027113700
  -0.0002622800   -0.0004727700   -0.0008710000
   0.0011042200    0.0002582900   -0.0027004900
   0.0002137000    0.0003166700   -0.0008668700
   0.0012497600   -0.0038414600   -0.0001935700
  -0.0004403500   -0.0001166300    0.0002422600
  -0.0042763700    0.0145161700   -0.0061882300
   0.0001862700    0.0008678600    0.0008691400
   0.0137165500    0.0016802500   -0.0061828400
  -0.0039375700    0.0014878300   -0.0001886700
   0.0001504300    0.0001202000    0.0008676300
  -0.0004631200   -0.0000840200    0.0002419900
   0.0007391300    0.0005123100   -0.0027394600
  -0.0011174500   -0.0001668500   -0.0018413900
   0.0002020500    0.0004452900   -0.0009706600
  -0.0003531700    0.0002287000   -0.0008736700
  -0.0001894700    0.0002566700   -0.0016788600
   0.0001789000    0.0003015700   -0.0014943300
  -0.0008564400   -0.0001867200   -0.0014957200
  -0.0002328800    0.0004235700   -0.0016789600
  -0.0066287300    0.0076357200   -0.0013603400
   0.0007380700    0.0003732500   -0.0001413200
  -0.0004998800   -0.0012469200   -0.0002127700
   0.0013921800   -0.0009890500   -0.0002817300
   0.0034943400   -0.0057252200   -0.0234248900
  -0.0014373400   -0.0001199400   -0.0009742800
   0.0000964800    0.0006586000   -0.0003114100
  -0.0008519900    0.0005949400    0.0000167600
   0.0009153000    0.0001934900   -0.0054863000
  -0.0002752200   -0.0005568100   -0.0015024700
   0.0004245000   -0.0000617100   -0.0013222700
  -0.0001390600   -0.0001264700   -0.0007331200
  -0.0142655400   -0.0015790900    0.0011068900
   0.0117074100    0.0026347000    0.0011050900
  -0.0003227600    0.0007054800    0.0011629800
   0.0006756600    0.0004878500    0.0011727100
  -0.0021475400   -0.0013785600   -0.0034472700
   0.0009654900   -0.0001154500   -0.0012200400
  -0.0001938100    0.0006195900   -0.0008906200
   0.0000328500   -0.0000429700   -0.0005232600
   0.0019811700    0.0017568400   -0.0034493500
  -0.0005160700    0.0003263700   -0.0008915900
   0.0004721000   -0.0011308000   -0.0012257700
  -0.0001623200    0.0000049600   -0.0005205200
   0.0071969400    0.0089266400    0.0024379700
  -0.0011983700    0.0001762100    0.0012909200
   0.0015980000   -0.0069685200    0.0017857900
  -0.0005989900   -0.0008102300    0.0006986300
  -0.0022104200    0.0002980700   -0.0039418600
   0.0015161200    0.0013447100   -0.0003998900
   0.0304930000    0.0535704500   -0.0548857000
   0.0018741300   -0.0003166700   -0.0037211500
  -0.0058867800    0.0044883400    0.0062681700
   0.0013120900    0.0009257100    0.0017522100
  -0.0017776800   -0.0018466200    0.0024619400
   0.0010210800   -0.0008413800    0.0011279000
  -0.0021422100   -0.0006358900    0.0046101500
   0.0017545800   -0.0000944100    0.0031700800
  -0.0008470400    0.0000723400    0.0021018000
   0.0007141800   -0.0000763700    0.0014812900
  -0.0023784100   -0.0018465400    0.0002653400
   0.0030137000   -0.0015960100   -0.0026378900
  -0.0121330900    0.0081439400    0.0019498800
   0.0030903900    0.0040232600    0.0011713600
  -0.0077241500   -0.0035628400   -0.0267534700
  -0.0009096200    0.0028606100   -0.0078425600
   0.0021705900   -0.0041799200   -0.0072139700
   0.0003620100   -0.0008363100   -0.0024850600
   0.0009996000    0.0010806100    0.0025484900
  -0.0000755900    0.0005427700    0.0012594800
   0.0054294300   -0.0036106600    0.0082346400
  -0.0022356300   -0.0021971500    0.0044964000
  -0.0010178500   -0.0015743400    0.0045065900
   0.0003870400   -0.0004114300    0.0018832100
   0.0024657200    0.0032215100    0.0077539600
   0.0002028600    0.0004868100    0.0030081300
   0.0013307000   -0.0061326100   -0.0160313400
  -0.0005683700   -0.0023775000   -0.0009366100
   0.0010909000    0.0016161300   -0.0007186600
   0.0001263500    0.0003921500   -0.0011213900

65   
  0.0100000000000000   0.0000000000000000   0.0000000000000000
   0.0059634000    0.0010195600    0.0022293000
  -0.0040417700   -0.0017302600   -0.0015095800
   0.0477051300    0.0448615600   -0.0293560100
  -0.0065141600   -0.0006231100   -0.0018746800
   0.0019405600    0.0067004700   -0.0040061800
  -0.0028819100   -0.0006409100    0.0016099600
   0.0044365600   -0.0077632600   -0.0081032200
  -0.0068473400    0.0022345700    0.0018748600
   0.0045669800   -0.0078324300    0.0082062700
  -0.0068543200    0.0022467500   -0.0018455200
   0.0020037900    0.0066812100    0.0040503800
  -0.0028482800   -0.0006426100   -0.0015795100
   0.0480252200    0.0465085400    0.0303858600
  -0.0065247800   -0.0006194500    0.0018921100
   0.0059736400    0.0010790700   -0.0021913800
  -0.0040622500   -0.0017003800    0.0015290300
   0.0049390000    0.0014629500   -0.0058973700
  -0.0046317600   -0.0024022200    0.0013094300
   0.0021784400   -0.0012928100   -0.0018005800
  -0.0017281700    0.0000328300    0.0009903000
   0.0855446500   -0.0446860200    0.0510891800
  -0.0084686500   -0.0009078900    0.0003011600
   0.0024438400   -0.0025571400   -0.0003362500
  -0.0037747300    0.0031794000    0.0013405100
   0.0025027100   -0.0025597600    0.0003019700
  -0.0037574300    0.0031937300   -0.0013565800
   0.0891577500   -0.0477116700   -0.0542112900
  -0.0084038300   -0.0008777100   -0.0003013500
   0.0021961100   -0.0012414300    0.0017554200
  -0.0017260400    0.0000733300   -0.0010278400
   0.0049503300    0.0015300500    0.0058475800
  -0.0046336600   -0.0023680000   -0.0013412400
   0.0015640000   -0.0002182900    0.0021698900
  -0.0015061400    0.0006841200   -0.0017569600
   0.0005525000    0.0004526900    0.0008561200
  -0.0007063000   -0.0003033100   -0.0007120200
   0.0018710000   -0.0008281700   -0.0044626100
  -0.0032290200    0.0006041500    0.0018652400