128
12

1
  0.0100000000000000   0.0000000000000000   0.0000000000000000
  -0.1073647600   -0.0006737800   -0.0021835700
   0.0114871400   -0.0003341800   -0.0013517100
   0.0021771700   -0.0000045100   -0.0024530600
   0.0113017900    0.0003064000   -0.0035449000
   0.0024901000   -0.0054540000   -0.0030813600
   0.0024832200    0.0054726500   -0.0018297200
   0.0001816300    0.0000703700   -0.0024516800
   0.0001814400   -0.0000818500   -0.0024553500
   0.0004170300   -0.0010275400   -0.0025413900
   0.0000443900   -0.0000116700   -0.0024507400
   0.0004175700    0.0010038000   -0.0023617500
   0.0000506400   -0.0000088100   -0.0024528200
   0.0024872100   -0.0048388600   -0.0019863900
   0.0001802800   -0.0000809200   -0.0025436000
   0.0001831100    0.0000774800   -0.0023622600
   0.0024856000    0.0048072300   -0.0029268800
  -0.0000974600   -0.0000038000   -0.0024530200
   0.0001985600   -0.0000783100   -0.0023620000
   0.0002225800   -0.0000058800   -0.0024530700
   0.0002012000    0.0000748200   -0.0025429400
  -0.0001306100   -0.0002729300   -0.0025748400
  -0.0001307500    0.0002586300   -0.0023312800
   0.0002366900    0.0001358300   -0.0025175700
   0.0002360200   -0.0001465700   -0.0023895500
   0.0000221300   -0.0001190400   -0.0024687400
  -0.0000033700   -0.0000060800   -0.0024523000
   0.0000214900    0.0001057500   -0.0024361800
  -0.0000024300   -0.0000077900   -0.0024525700
  -0.0001318900   -0.0001235500   -0.0024856200
   0.0002378000   -0.0001439700   -0.0022856700
   0.0002319200    0.0001314200   -0.0026184700
  -0.0001263200    0.0001134500   -0.0024205400
   0.0016245900   -0.0011464700    0.0069568200
   0.0016189000    0.0011570600   -0.0012925900
   0.0002365900    0.0000636800    0.0028980400
   0.0002382700   -0.0000584400    0.0028056400
   0.0000429800   -0.0001857700    0.0027633000
  -0.0001526400    0.0000000600    0.0028540300
   0.0000417400    0.0001874300    0.0029401400
   0.0000751000    0.0000015700    0.0028541900
  -0.0000745800   -0.0001047600    0.0028091700
   0.0000674600   -0.0001044900    0.0028252800
   0.0000679000    0.0001067900    0.0028686700
  -0.0000746600    0.0001076200    0.0028914000
  -0.0003729900    0.0000088700    0.0028633100
   0.0000208400   -0.0000980500    0.0027716100
   0.0002505300    0.0000020400    0.0028511300
   0.0000223200    0.0001030600    0.0029356000
   0.0010211000   -0.0019311100    0.0000876400
   0.0010122400    0.0019570000    0.0056362300
   0.0003262000    0.0001617200    0.0029237200
   0.0003292100   -0.0001541100    0.0027806700
   0.0000202100   -0.0003220600    0.0028321700
  -0.0001550600   -0.0000045800    0.0028497400
   0.0000163800    0.0003242200    0.0028704700
   0.0001054600    0.0000015600    0.0028542300
  -0.0002436900   -0.0001851800    0.0029089100
   0.0004379200   -0.0006381200    0.0028257400
   0.0004341900    0.0006339300    0.0028753500
  -0.0002435400    0.0001852700    0.0027953500
  -0.0023502400    0.0000189000    0.0028348700
   0.0038524100   -0.0023089200    0.0046910400
   0.0015376700    0.0000004800    0.0028522400
   0.0038007900    0.0022887100    0.0010243900
   0.0080655900    0.0021456400   -0.0054596500
   0.0084305800   -0.0024321700    0.0062468000
  -0.0026617000    0.0002554900    0.0000412400
  -0.0026535100   -0.0002596600    0.0003464300
   0.0002925700    0.0006293200    0.0000566900
   0.0042854700   -0.0000447000    0.0001658100
   0.0003168100   -0.0006338800    0.0003419000
  -0.0006378400   -0.0000001700    0.0001905600
  -0.0000995100    0.0003147800    0.0002365800
   0.0000638200    0.0010571300    0.0005748400
   0.0000662900   -0.0010394000   -0.0001849100
  -0.0000957600   -0.0003094100    0.0001448100
   0.0013989300    0.0000065500    0.0001819600
  -0.0006158100    0.0017159200    0.0004201100
  -0.0004036100    0.0000049700    0.0001935500
  -0.0006072200   -0.0016938400   -0.0000340300
   0.0002975000   -0.0006515000   -0.0000099700
   0.0002966100    0.0006455100    0.0003858100
  -0.0004709000    0.0001060700    0.0001264300
  -0.0004709700   -0.0001037500    0.0002563900
  -0.0004918800    0.0005233700    0.0000469300
   0.0014203400    0.0000041500    0.0001850200
  -0.0004854600   -0.0005188000    0.0003297800
  -0.0005541100    0.0000011000    0.0001915600
  -0.0000982700    0.0002663100    0.0002258900
   0.0000972300    0.0002708300    0.0002486300
   0.0000987200   -0.0002664400    0.0001313900
  -0.0000961300   -0.0002618800    0.0001558100
   0.0004146500    0.0000017800    0.0001927700
  -0.0000452200    0.0003075400    0.0001855000
  -0.0003238100    0.0000022500    0.0001917700
  -0.0000449100   -0.0003040500    0.0001989000
   0.0213845600   -0.0132044100    0.0091362300
   0.0225949200    0.0140942600   -0.0109726300
  -0.0001664600   -0.0000976700   -0.0003943900
  -0.0001669800    0.0000995900   -0.0007840800
  -0.0000662200   -0.0000268600   -0.0006538200
   0.0001153500    0.0000037000   -0.0005896300
  -0.0000654300    0.0000345400   -0.0005246400
  -0.0001233600    0.0000031300   -0.0005879900
  -0.0000583200    0.0001564400   -0.0004600600
   0.0000167400    0.0000501600   -0.0005830900
   0.0000162000   -0.0000438300   -0.0005991000
  -0.0000578300   -0.0001465200   -0.0007206700
  -0.0016454200    0.0000918800   -0.0005644600
  -0.0001614000    0.0001622400   -0.0004300600
  -0.0000656300    0.0000013600   -0.0005917300
  -0.0001658000   -0.0001603200   -0.0007430400
   0.0001826900   -0.0001236400   -0.0002737100
   0.0001826400    0.0001298300   -0.0009051300
  -0.0000472800   -0.0000244500   -0.0006384300
  -0.0000476800    0.0000286800   -0.0005419800
  -0.0000343200    0.0000099300   -0.0005634800
   0.0000868800    0.0000031000   -0.0005902500
  -0.0000350600   -0.0000041300   -0.0006166400
  -0.0000839700    0.0000025200   -0.0005903600
  -0.0000124100    0.0000231600   -0.0006113800
   0.0000038600    0.0000572900   -0.0006120000
   0.0000034600   -0.0000514600   -0.0005717600
  -0.0000122400   -0.0000181100   -0.0005734800
  -0.0000362000    0.0000029400   -0.0005910400
   0.0000730000    0.0000103100   -0.0008445000
  -0.0000909000    0.0000021900   -0.0005914000
   0.0000714400   -0.0000065700   -0.0003435600

1
  0.0000000000000000   0.0000000000000000   0.0100000000000000
   0.0000000000    0.0000000000   -0.0698172200
  -0.0011158100    0.0000930700   -0.0032403800
   0.0000000000    0.0001038000   -0.0025864300
   0.0011158100    0.0000930700   -0.0032403800
   0.0004773000   -0.0010128500   -0.0032403800
  -0.0004773000   -0.0010128500   -0.0032403800
   0.0000887000    0.0000512100   -0.0024902700
  -0.0000887000    0.0000512100   -0.0024902700
  -0.0000898900   -0.0000519000   -0.0025864300
   0.0000000000   -0.0000049600   -0.0024911000
   0.0000898900   -0.0000519000   -0.0025864300
   0.0000000000   -0.0001024200   -0.0024902700
  -0.0006385000    0.0009197800   -0.0032403800
  -0.0000043000    0.0000024800   -0.0024911000
   0.0000043000    0.0000024800   -0.0024911000
   0.0006385000    0.0009197800   -0.0032403800
   0.0000000000    0.0000000000   -0.0021261200
  -0.0000881500    0.0000877800   -0.0020321700
   0.0000000000    0.0000191500   -0.0024562500
   0.0000881500    0.0000877800   -0.0020321700
  -0.0000319500   -0.0001202300   -0.0020321700
   0.0000319500   -0.0001202300   -0.0020321700
  -0.0001680100   -0.0000970000   -0.0023384700
   0.0001680100   -0.0000970000   -0.0023384700
  -0.0000165800   -0.0000095700   -0.0024562500
   0.0000000000    0.0000747100   -0.0023371300
   0.0000165800   -0.0000095700   -0.0024562500
   0.0000000000    0.0001940000   -0.0023384700
  -0.0001201000    0.0000324500   -0.0020321700
   0.0000647000   -0.0000373600   -0.0023371300
  -0.0000647000   -0.0000373600   -0.0023371300
   0.0001201000    0.0000324500   -0.0020321700
   0.0026277400   -0.0015171300    0.0084988200
  -0.0026277400   -0.0015171300    0.0084988200
  -0.0000790100    0.0000833200    0.0027962000
   0.0000790100    0.0000833200    0.0027962000
  -0.0000326600   -0.0001100800    0.0027962000
   0.0000000000   -0.0001455300    0.0028340800
   0.0000326600   -0.0001100800    0.0027962000
   0.0000000000    0.0000000000    0.0028256500
  -0.0001116600    0.0000267600    0.0027962000
  -0.0000458300   -0.0000264600    0.0028950700
   0.0000458300   -0.0000264600    0.0028950700
   0.0001116600    0.0000267600    0.0027962000
   0.0000000000    0.0030342500    0.0084988200
  -0.0001260400    0.0000727700    0.0028340800
   0.0000000000    0.0000529200    0.0028950700
   0.0001260400    0.0000727700    0.0028340800
  -0.0033468100    0.0019322800    0.0062670500
   0.0033468100    0.0019322800    0.0062670500
   0.0001215800   -0.0000298700    0.0027937900
  -0.0001215800   -0.0000298700    0.0027937900
  -0.0000349200    0.0001202200    0.0027937900
   0.0000000000    0.0021290400    0.0039516400
   0.0000349200    0.0001202200    0.0027937900
   0.0000000000    0.0000000000    0.0029197900
   0.0000866500   -0.0000903600    0.0027937900
  -0.0000411400   -0.0000237500    0.0027466800
   0.0000411400   -0.0000237500    0.0027466800
  -0.0000866500   -0.0000903600    0.0027937900
   0.0000000000   -0.0038645700    0.0062670500
   0.0018438000   -0.0010645200    0.0039516400
   0.0000000000    0.0000475000    0.0027466800
  -0.0018438000   -0.0010645200    0.0039516400
  -0.0082682100   -0.0047736500    0.0112638500
   0.0082682100   -0.0047736500    0.0112638500
  -0.0001680700   -0.0004463600    0.0007316700
   0.0001680700   -0.0004463600    0.0007316700
   0.0005877900   -0.0003393600    0.0012436700
   0.0000000000    0.0095473100    0.0112638500
  -0.0005877900   -0.0003393600    0.0012436700
   0.0000000000   -0.0000409800    0.0002487400
   0.0000354900    0.0000204900    0.0002487400
   0.0004706000    0.0000776300    0.0007316700
  -0.0004706000    0.0000776300    0.0007316700
  -0.0000354900    0.0000204900    0.0002487400
   0.0000000000    0.0006787300    0.0012436700
   0.0003025300    0.0003687400    0.0007316700
   0.0000000000    0.0000000000    0.0002267200
  -0.0003025300    0.0003687400    0.0007316700
  -0.0006492600   -0.0003748500   -0.0007933400
   0.0006492600   -0.0003748500   -0.0007933400
  -0.0000155800   -0.0000948900    0.0001143800
   0.0000155800   -0.0000948900    0.0001143800
  -0.0008524200    0.0004921400   -0.0003495100
   0.0000000000    0.0007497000   -0.0007933400
   0.0008524200    0.0004921400   -0.0003495100
   0.0000000000   -0.0000315300    0.0002353500
   0.0000273100    0.0000157700    0.0002353500
   0.0000899600    0.0000339500    0.0001143800
  -0.0000899600    0.0000339500    0.0001143800
  -0.0000273100    0.0000157700    0.0002353500
   0.0000000000   -0.0009842800   -0.0003495100
   0.0000743900    0.0000609300    0.0001143800
   0.0000000000    0.0000000000    0.0001304700
  -0.0000743900    0.0000609300    0.0001143800
   0.0070621800   -0.0040773500    0.0016811200
  -0.0070621800   -0.0040773500    0.0016811200
  -0.0000304900    0.0000256800   -0.0006503000
   0.0000304900    0.0000256800   -0.0006503000
  -0.0000070000   -0.0000392400   -0.0006503000
   0.0000000000    0.0001540500   -0.0006631000
   0.0000070000   -0.0000392400   -0.0006503000
   0.0000000000    0.0000000000   -0.0005855300
  -0.0000374900    0.0000135600   -0.0006503000
   0.0000203000    0.0000117200   -0.0006013600
  -0.0000203000    0.0000117200   -0.0006013600
   0.0000374900    0.0000135600   -0.0006503000
   0.0000000000    0.0081547000    0.0016811200
   0.0001334100   -0.0000770200   -0.0006631000
   0.0000000000   -0.0000234400   -0.0006013600
  -0.0001334100   -0.0000770200   -0.0006631000
  -0.0001202000    0.0000694000   -0.0008784800
   0.0001202000    0.0000694000   -0.0008784800
  -0.0000369400    0.0000164000   -0.0006144100
   0.0000369400    0.0000164000   -0.0006144100
   0.0000042600   -0.0000401900   -0.0006144100
   0.0000000000   -0.0000690200   -0.0007267600
  -0.0000042600   -0.0000401900   -0.0006144100
   0.0000000000    0.0000000000   -0.0006007500
  -0.0000326700    0.0000237900   -0.0006144100
   0.0000124900    0.0000072100   -0.0006091100
  -0.0000124900    0.0000072100   -0.0006091100
   0.0000326700    0.0000237900   -0.0006144100
   0.0000000000   -0.0001388000   -0.0008784800
  -0.0000597700    0.0000345100   -0.0007267600
   0.0000000000   -0.0000144200   -0.0006091100
   0.0000597700    0.0000345100   -0.0007267600

1
  0.0000000000000000   0.0000000000000000  -0.0100000000000000
   0.0000000000    0.0000000000    0.0643301600
   0.0010816700   -0.0000746900   -0.0016897300
   0.0000000000   -0.0000997900   -0.0023423600
  -0.0010816700   -0.0000746900   -0.0016897300
  -0.0004761500    0.0009741000   -0.0016897300
   0.0004761500    0.0009741000   -0.0016897300
  -0.0000966000   -0.0000557700   -0.0024373600
   0.0000966000   -0.0000557700   -0.0024373600
   0.0000864200    0.0000499000   -0.0023423600
   0.0000000000    0.0000138300   -0.0024343200
  -0.0000864200    0.0000499000   -0.0023423600
   0.0000000000    0.0001115500   -0.0024373600
   0.0006055200   -0.0008994100   -0.0016897300
   0.0000119700   -0.0000069100   -0.0024343200
  -0.0000119700   -0.0000069100   -0.0024343200
  -0.0006055200   -0.0008994100   -0.0016897300
   0.0000000000    0.0000000000   -0.0027796200
   0.0001094000   -0.0001028100   -0.0028849200
   0.0000000000   -0.0000051600   -0.0024669200
  -0.0001094000   -0.0001028100   -0.0028849200
   0.0000343400    0.0001461500   -0.0028849200
  -0.0000343400    0.0001461500   -0.0028849200
   0.0001603200    0.0000925600   -0.0025870900
  -0.0001603200    0.0000925600   -0.0025870900
   0.0000044700    0.0000025800   -0.0024669200
   0.0000000000   -0.0000926600   -0.0025805700
  -0.0000044700    0.0000025800   -0.0024669200
   0.0000000000   -0.0001851200   -0.0025870900
   0.0001437400   -0.0000433400   -0.0028849200
  -0.0000802400    0.0000463300   -0.0025805700
   0.0000802400    0.0000463300   -0.0025805700
  -0.0001437400   -0.0000433400   -0.0028849200
  -0.0026485300    0.0015291300   -0.0028543000
   0.0026485300    0.0015291300   -0.0028543000
   0.0000779300   -0.0000835500    0.0029135700
  -0.0000779300   -0.0000835500    0.0029135700
   0.0000333900    0.0001092700    0.0029135700
   0.0000000000    0.0001426900    0.0028715800
  -0.0000333900    0.0001092700    0.0029135700
   0.0000000000    0.0000000000    0.0028838700
   0.0001113200   -0.0000257200    0.0029135700
   0.0000464100    0.0000267900    0.0028146700
  -0.0000464100    0.0000267900    0.0028146700
  -0.0001113200   -0.0000257200    0.0029135700
   0.0000000000   -0.0030582600   -0.0028543000
   0.0001235800   -0.0000713500    0.0028715800
   0.0000000000   -0.0000535900    0.0028146700
  -0.0001235800   -0.0000713500    0.0028715800
   0.0033076700   -0.0019096800   -0.0005349300
  -0.0033076700   -0.0019096800   -0.0005349300
  -0.0001231000    0.0000292700    0.0029158400
   0.0001231000    0.0000292700    0.0029158400
   0.0000362000   -0.0001212400    0.0029158400
   0.0000000000   -0.0021178500    0.0017680300
  -0.0000362000   -0.0001212400    0.0029158400
   0.0000000000    0.0000000000    0.0027859600
  -0.0000869000    0.0000919700    0.0029158400
   0.0000399100    0.0000230400    0.0029529200
  -0.0000399100    0.0000230400    0.0029529200
   0.0000869000    0.0000919700    0.0029158400
   0.0000000000    0.0038193600   -0.0005349300
  -0.0018341100    0.0010589200    0.0017680300
   0.0000000000   -0.0000460800    0.0029529200
   0.0018341100    0.0010589200    0.0017680300
   0.0079224800    0.0045740400   -0.0107082500
  -0.0079224800    0.0045740400   -0.0107082500
   0.0001714100    0.0004430500   -0.0003362300
  -0.0001714100    0.0004430500   -0.0003362300
  -0.0005829500    0.0003365600   -0.0008520800
   0.0000000000   -0.0091480900   -0.0107082500
   0.0005829500    0.0003365600   -0.0008520800
   0.0000000000    0.0000404300    0.0001418000
  -0.0000350200   -0.0000202200    0.0001418000
  -0.0004694000   -0.0000730800   -0.0003362300
   0.0004694000   -0.0000730800   -0.0003362300
   0.0000350200   -0.0000202200    0.0001418000
   0.0000000000   -0.0006731300   -0.0008520800
  -0.0002979900   -0.0003699700   -0.0003362300
   0.0000000000    0.0000000000    0.0001549200
   0.0002979900   -0.0003699700   -0.0003362300
   0.0006445300    0.0003721200    0.0011794500
  -0.0006445300    0.0003721200    0.0011794500
   0.0000084700    0.0000933500    0.0002721600
  -0.0000084700    0.0000933500    0.0002721600
   0.0008549600   -0.0004936100    0.0007420300
   0.0000000000   -0.0007442400    0.0011794500
  -0.0008549600   -0.0004936100    0.0007420300
   0.0000000000    0.0000302100    0.0001554500
  -0.0000261700   -0.0000151100    0.0001554500
  -0.0000850800   -0.0000393400    0.0002721600
   0.0000850800   -0.0000393400    0.0002721600
   0.0000261700   -0.0000151100    0.0001554500
   0.0000000000    0.0009872200    0.0007420300
  -0.0000766100   -0.0000540100    0.0002721600
   0.0000000000    0.0000000000    0.0002691300
   0.0000766100   -0.0000540100    0.0002721600
  -0.0072405100    0.0041803100   -0.0027917200
   0.0072405100    0.0041803100   -0.0027917200
   0.0000314500   -0.0000251100   -0.0005333900
  -0.0000314500   -0.0000251100   -0.0005333900
   0.0000060200    0.0000397900   -0.0005333900
   0.0000000000   -0.0001465800   -0.0005160300
  -0.0000060200    0.0000397900   -0.0005333900
   0.0000000000    0.0000000000   -0.0005898400
   0.0000374700   -0.0000146800   -0.0005333900
  -0.0000191400   -0.0000110500   -0.0005741700
   0.0000191400   -0.0000110500   -0.0005741700
  -0.0000374700   -0.0000146800   -0.0005333900
   0.0000000000   -0.0083606200   -0.0027917200
  -0.0001269400    0.0000732900   -0.0005160300
   0.0000000000    0.0000221000   -0.0005741700
   0.0001269400    0.0000732900   -0.0005160300
   0.0001174800   -0.0000678200   -0.0002861900
  -0.0001174800   -0.0000678200   -0.0002861900
   0.0000374900   -0.0000178600   -0.0005630200
  -0.0000374900   -0.0000178600   -0.0005630200
  -0.0000032800    0.0000414000   -0.0005630200
   0.0000000000    0.0000699800   -0.0004434500
   0.0000032800    0.0000414000   -0.0005630200
   0.0000000000    0.0000000000   -0.0005731200
   0.0000342100   -0.0000235400   -0.0005630200
  -0.0000142400   -0.0000082200   -0.0005652600
   0.0000142400   -0.0000082200   -0.0005652600
  -0.0000342100   -0.0000235400   -0.0005630200
   0.0000000000    0.0001356500   -0.0002861900
   0.0000606000   -0.0000349900   -0.0004434500
   0.0000000000    0.0000164400   -0.0005652600
  -0.0000606000   -0.0000349900   -0.0004434500

33
  0.0100000000000000   0.0000000000000000   0.0000000000000000
   0.0016276600   -0.0011608500    0.0001786100
   0.0002584100   -0.0000779000   -0.0023781100
   0.0002446000    0.0000708600   -0.0025357900
   0.0016355700    0.0011405600   -0.0050985400
  -0.0003584800   -0.0000124000   -0.0024701200
   0.0000420500    0.0001069300   -0.0023359900
   0.0002521600   -0.0000046200   -0.0024663300
   0.0000325100   -0.0001064300   -0.0025795400
  -0.0000642400   -0.0001231900   -0.0025644600
  -0.0000628600    0.0001100900   -0.0023425700
   0.0000788300    0.0000870200   -0.0024140400
   0.0000819300   -0.0001114700   -0.0025032600
   0.0000533300   -0.0001822600   -0.0024907100
   0.0000872600   -0.0000058500   -0.0024544000
   0.0000582300    0.0001707100   -0.0024225000
  -0.0001442200   -0.0000021600   -0.0024575000
   0.0010247900   -0.0019608300   -0.0057919400
   0.0003364300   -0.0001529300   -0.0025772600
   0.0003450800    0.0001334900   -0.0023347900
   0.0010301600    0.0019270600    0.0008618600
  -0.0023407400    0.0000032200   -0.0024579500
   0.0038461800    0.0022963800   -0.0042970000
   0.0015536500    0.0000022000   -0.0024576700
   0.0038288300   -0.0023004400   -0.0006219700
  -0.0002312200   -0.0001750200   -0.0023691600
  -0.0002320000    0.0001715400   -0.0025405500
   0.0004464600    0.0006335400   -0.0024145900
   0.0004491500   -0.0006434700   -0.0024964200
   0.0000262700   -0.0003429800   -0.0024904800
   0.0001211500   -0.0000083200   -0.0024578700
   0.0000319700    0.0003324600   -0.0024218800
  -0.0001447000    0.0000193700   -0.0024459300
  -0.0637476200   -0.0005441000    0.0036104200
   0.0054041900   -0.0007110100    0.0023009600
   0.0012804300    0.0000008600    0.0028698500
   0.0053133200    0.0007049100    0.0034042900
   0.0005083000   -0.0034974900    0.0029146400
   0.0005075700    0.0035225700    0.0028060400
   0.0003381200    0.0002592900    0.0029153000
   0.0003364700   -0.0002525400    0.0028212500
   0.0001775100   -0.0006332800    0.0028246700
  -0.0001054000    0.0000018400    0.0028546400
   0.0001801900    0.0006383800    0.0028883500
  -0.0001059400    0.0000024800    0.0028550500
   0.0005014600   -0.0020916100    0.0023634300
   0.0003375100   -0.0002547200    0.0028371500
   0.0003390200    0.0002581300    0.0028735900
   0.0005123200    0.0020924800    0.0033530600
  -0.0004264800    0.0000002900    0.0028517200
   0.0001239400    0.0000751800    0.0025357400
   0.0003361200    0.0000004500    0.0028487900
   0.0001286100   -0.0000741300    0.0031712700
  -0.0002155700   -0.0001202500    0.0028925300
  -0.0002176400    0.0001253100    0.0028060300
   0.0002769600    0.0001699300    0.0026387500
   0.0002796700   -0.0001632200    0.0030769200
   0.0000168100   -0.0001819800    0.0028397600
  -0.0000096900    0.0000010700    0.0028556200
   0.0000165700    0.0001867300    0.0028741200
  -0.0000101500    0.0000047100    0.0028557700
  -0.0002176000   -0.0002717700    0.0025825300
   0.0002770400   -0.0001656400    0.0028799400
   0.0002789900    0.0001663400    0.0028295100
  -0.0002148500    0.0002741500    0.0031323100
   0.0014666600   -0.0000014600    0.0001938700
  -0.0004315900    0.0005251900    0.0001684500
  -0.0005962000    0.0000041800    0.0001897900
  -0.0004389500   -0.0005230000    0.0002167700
   0.0007588400    0.0004113000    0.0003123400
   0.0007697600   -0.0004003800    0.0000768700
  -0.0006841100   -0.0000666600    0.0002381000
  -0.0006879500    0.0000693900    0.0001374700
  -0.0000325200    0.0004148100    0.0002461100
   0.0004709500    0.0000038300    0.0001931800
  -0.0000322000   -0.0004162200    0.0001334300
  -0.0004710800   -0.0000017500    0.0001890700
   0.0000609200    0.0003922500    0.0002975400
  -0.0000727500    0.0003026600    0.0002404100
  -0.0000750600   -0.0003004100    0.0001413600
   0.0000583000   -0.0003911900    0.0000832400
   0.0055336800    0.0000476600    0.0002093400
  -0.0002103800    0.0012595200    0.0005913800
  -0.0007349800    0.0000036700    0.0001909400
  -0.0002280800   -0.0012498200   -0.0002119900
   0.0177606900   -0.0069798900    0.0110344900
   0.0183226700    0.0074687200   -0.0112847900
  -0.0026761300   -0.0004628100    0.0006524300
  -0.0026670200    0.0004619000   -0.0002664600
  -0.0007641700    0.0015135200    0.0000855500
   0.0019548800   -0.0000045200    0.0001909000
  -0.0007693700   -0.0015169400    0.0002960100
  -0.0005357500   -0.0000018600    0.0001918000
  -0.0000014500    0.0011196800    0.0005408900
  -0.0000737300    0.0003813700    0.0001902900
  -0.0000753000   -0.0003806500    0.0001866100
  -0.0000114500   -0.0011290100   -0.0001658300
  -0.0002509200    0.0000073400   -0.0006925300
  -0.0001757800   -0.0001184900   -0.0009563400
  -0.0000787300    0.0000019600   -0.0005880500
  -0.0001850500    0.0001264900   -0.0002284800
  -0.0000773000   -0.0000217200   -0.0003265300
  -0.0000753600    0.0000348300   -0.0008555800
  -0.0000753700   -0.0000100700   -0.0006403400
  -0.0000732100    0.0000161600   -0.0005349300
  -0.0000189400    0.0000347000   -0.0005669000
   0.0000633600    0.0000007900   -0.0005929200
  -0.0000210900   -0.0000321200   -0.0006177100
  -0.0000515700    0.0000016900   -0.0005927100
  -0.0000469300    0.0001655600   -0.0006867600
   0.0000080400    0.0000350200   -0.0006192300
   0.0000066400   -0.0000310700   -0.0005624300
  -0.0000481200   -0.0001666600   -0.0004890200
  -0.0000500800    0.0000022000   -0.0005922700
   0.0003260400   -0.0002474500   -0.0007819100
  -0.0001084500    0.0000029100   -0.0005919700
   0.0003188800    0.0002510800   -0.0004009000
   0.0003408100   -0.0004390000   -0.0002797500
   0.0003387500    0.0004532000   -0.0009052000
  -0.0006736800   -0.0003083800   -0.0004152200
  -0.0006731200    0.0003150000   -0.0007610400
  -0.0000032100    0.0000635600   -0.0005646900
   0.0000716600    0.0000018200   -0.0005913900
  -0.0000037800   -0.0000591500   -0.0006181000
  -0.0001326700   -0.0000002800   -0.0005945500
   0.0001601700    0.0003645200   -0.0004692100
   0.0000123400    0.0000350200   -0.0005859300
   0.0000132700   -0.0000312700   -0.0005917000
   0.0001619100   -0.0003589800   -0.0007104300

33
  0.0000000000000000   0.0000000000000000   0.0100000000000000
   0.0041541900   -0.0023984200    0.0032447000
  -0.0000479800    0.0000737500   -0.0025199100
   0.0000479800    0.0000737500   -0.0025199100
  -0.0041541900   -0.0023984200    0.0032447000
   0.0000000000    0.0047968400    0.0032447000
   0.0000793200    0.0000458000   -0.0024817600
   0.0000000000    0.0000283000   -0.0024158700
  -0.0000793200    0.0000458000   -0.0024817600
  -0.0000398800   -0.0000784200   -0.0025199100
   0.0000398800   -0.0000784200   -0.0025199100
   0.0000245100   -0.0000141500   -0.0024158700
  -0.0000245100   -0.0000141500   -0.0024158700
  -0.0000878600    0.0000046700   -0.0025199100
   0.0000000000    0.0000000000   -0.0024913800
   0.0000878600    0.0000046700   -0.0025199100
   0.0000000000   -0.0000915900   -0.0024817600
  -0.0027474200    0.0015862200    0.0009018700
  -0.0000753700   -0.0000238900   -0.0025292400
   0.0000753700   -0.0000238900   -0.0025292400
   0.0027474200    0.0015862200    0.0009018700
   0.0000000000   -0.0031724500    0.0009018700
  -0.0018339700   -0.0010588400   -0.0013766800
   0.0000000000    0.0000322800   -0.0025740400
   0.0018339700   -0.0010588400   -0.0013766800
   0.0000583800   -0.0000533300   -0.0025292400
  -0.0000583800   -0.0000533300   -0.0025292400
   0.0000279600   -0.0000161400   -0.0025740400
  -0.0000279600   -0.0000161400   -0.0025740400
  -0.0000169900    0.0000772200   -0.0025292400
   0.0000000000    0.0000000000   -0.0024035400
   0.0000169900    0.0000772200   -0.0025292400
   0.0000000000    0.0021176900   -0.0013766800
   0.0000000000    0.0000000000   -0.1281455200
   0.0005481700    0.0002502500    0.0020246400
   0.0000000000    0.0000380100    0.0027875700
  -0.0005481700    0.0002502500    0.0020246400
  -0.0004908100    0.0003496100    0.0020246400
   0.0004908100    0.0003496100    0.0020246400
   0.0000172200    0.0000099400    0.0027729000
  -0.0000172200    0.0000099400    0.0027729000
  -0.0000329200   -0.0000190100    0.0027875700
   0.0000000000   -0.0000409800    0.0027781100
   0.0000329200   -0.0000190100    0.0027875700
   0.0000000000   -0.0000198800    0.0027729000
   0.0000573600   -0.0005998500    0.0020246400
  -0.0000354900    0.0000204900    0.0027781100
   0.0000354900    0.0000204900    0.0027781100
  -0.0000573600   -0.0005998500    0.0020246400
   0.0000000000    0.0000000000    0.0029321600
   0.0003150600    0.0001340500    0.0035249100
   0.0000000000    0.0000184400    0.0028769200
  -0.0003150600    0.0001340500    0.0035249100
  -0.0002736200    0.0002058300    0.0035249100
   0.0002736200    0.0002058300    0.0035249100
  -0.0000285300   -0.0000164700    0.0030405700
   0.0000285300   -0.0000164700    0.0030405700
  -0.0000159700   -0.0000092200    0.0028769200
   0.0000000000    0.0002474000    0.0030439400
   0.0000159700   -0.0000092200    0.0028769200
   0.0000000000    0.0000329500    0.0030405700
   0.0000414400   -0.0003398800    0.0035249100
   0.0002142600   -0.0001237000    0.0030439400
  -0.0002142600   -0.0001237000    0.0030439400
  -0.0000414400   -0.0003398800    0.0035249100
   0.0000000000    0.0011126400   -0.0006211200
  -0.0008731400    0.0005041100   -0.0002594600
   0.0000000000   -0.0000519900    0.0002451600
   0.0008731400    0.0005041100   -0.0002594600
   0.0009635800   -0.0005563200   -0.0006211200
  -0.0009635800   -0.0005563200   -0.0006211200
  -0.0000714200   -0.0000752000    0.0000890300
   0.0000714200   -0.0000752000    0.0000890300
   0.0001008300   -0.0000242500    0.0000890300
   0.0000000000   -0.0010082200   -0.0002594600
  -0.0001008300   -0.0000242500    0.0000890300
   0.0000000000    0.0000000000    0.0000723000
   0.0000294100    0.0000994500    0.0000890300
   0.0000450200    0.0000259900    0.0002451600
  -0.0000450200    0.0000259900    0.0002451600
  -0.0000294100    0.0000994500    0.0000890300
   0.0000000000    0.0185094900    0.0183458400
   0.0002877300   -0.0001661200    0.0011731400
   0.0000000000   -0.0000736500    0.0002710800
  -0.0002877300   -0.0001661200    0.0011731400
   0.0160296900   -0.0092547500    0.0183458400
  -0.0160296900   -0.0092547500    0.0183458400
  -0.0001469000   -0.0003515700    0.0007616500
   0.0001469000   -0.0003515700    0.0007616500
   0.0003779200    0.0000485700    0.0007616500
   0.0000000000    0.0003322500    0.0011731400
  -0.0003779200    0.0000485700    0.0007616500
   0.0000000000    0.0000000000    0.0003272200
   0.0002310200    0.0003030000    0.0007616500
   0.0000637800    0.0000368200    0.0002710800
  -0.0000637800    0.0000368200    0.0002710800
  -0.0002310200    0.0003030000    0.0007616500
   0.0000000000    0.0000000000    0.0442192300
  -0.0002675800   -0.0001881100   -0.0005549300
   0.0000000000   -0.0000236200   -0.0005629900
   0.0002675800   -0.0001881100   -0.0005549300
   0.0002966900   -0.0001376800   -0.0005549300
  -0.0002966900   -0.0001376800   -0.0005549300
  -0.0000188900   -0.0000109100   -0.0005520100
   0.0000188900   -0.0000109100   -0.0005520100
   0.0000204600    0.0000118100   -0.0005629900