120
30

1
  0.0100000000000000  -0.0000000000461602   0.0000000000000000
  -0.1221480800    0.0006104900    0.0021570100
   0.0029790900   -0.0006150500    0.0002867600
   0.0006821900   -0.0007773100   -0.0000572200
   0.0015371000    0.0011731500   -0.0004757000
  -0.0001535600    0.0003817200    0.0008333700
   0.0002037600    0.0008257800   -0.0001277000
  -0.0002306100    0.0003224300   -0.0002430600
   0.0000856700    0.0008917900    0.0000811400
   0.0004523800    0.0003589700    0.0004398600
   0.0005393600    0.0003896500   -0.0000275800
   0.0003713500    0.0004561900    0.0001210600
   0.0004245500    0.0003812600   -0.0000784800
  -0.0002457600   -0.0001022300   -0.0004246200
   0.0000640300   -0.0000630500    0.0002673200
   0.0001701200   -0.0003800700   -0.0000242300
   0.0000437400    0.0001162700    0.0001923600
  -0.0014735500   -0.0013399300    0.0154052600
   0.0011326600    0.0002399900   -0.0010157100
  -0.0004061000   -0.0001749200   -0.0008002900
   0.0016476900    0.0017666100   -0.0003409200
   0.0069981100    0.0124721500   -0.0021498600
   0.0066555900   -0.0037418800   -0.0010827900
  -0.0005366800   -0.0018130500   -0.0003540300
  -0.0058082700    0.0044712600    0.0030433800
   0.0005670700   -0.0003856400   -0.0002183000
   0.0009016700   -0.0000471300    0.0033805300
  -0.0024341600    0.0018221300   -0.0008419100
   0.0008763800   -0.0013189700    0.0004821100
   0.0012102800    0.0001456500    0.0002259700
  -0.0008785700   -0.0014401300   -0.0078284800
  -0.0027213400    0.0031370000    0.0008409900
  -0.0001248900   -0.0007228700   -0.0005572100
   0.0004969600    0.0000045500    0.0009840800
   0.0008719800    0.0000622600   -0.0000746600
   0.0002124700   -0.0001447000   -0.0008004000
   0.0005477100   -0.0001502700    0.0005207100
   0.0019759300   -0.0006211300   -0.0011262100
   0.0008989600   -0.0016280700    0.0091193400
   0.0002643700   -0.0000576000   -0.0001577600
  -0.0009549000   -0.0015432300   -0.0003316700
  -0.0003328400    0.0001511800   -0.0003589200
   0.0003690600    0.0002638200   -0.0002949600
  -0.0002728700    0.0000618100    0.0017568800
  -0.0001681300    0.0001964800   -0.0009752000
  -0.0000116200    0.0000481100    0.0000195600
  -0.0000094000   -0.0000194000    0.0000862500
   0.0000480300    0.0000820400   -0.0000722200
   0.0001436500    0.0000150000    0.0000765400
   0.0003973000   -0.0001818500    0.0001339900
  -0.0004991200   -0.0002941100    0.0002464100
  -0.0012615400    0.0016862500   -0.0030855400
  -0.0009287100    0.0002619900    0.0009251200
  -0.0000449100   -0.0000697800    0.0000330000
   0.0002376300   -0.0000861800    0.0000533200
   0.0000552400   -0.0001782100    0.0000946500
   0.0000462100   -0.0000194300    0.0000635100
  -0.0011352300   -0.0050293100   -0.0042735700
  -0.0008509900    0.0006007300    0.0009710100
  -0.0000377900    0.0007260100    0.0002929700
   0.0010380600   -0.0036837700    0.0030744400
  -0.0012876800    0.0007710400    0.0002171700
   0.0272770200    0.0299197000   -0.0164568500
  -0.0005396600   -0.0025651200    0.0005552400
  -0.0007967300    0.0007817500    0.0002718800
   0.0157728700   -0.0261120800   -0.0065173200
  -0.0025953500   -0.0003506500    0.0009944900
   0.0005325800    0.0000525500    0.0000424600
  -0.0003081600   -0.0001061900    0.0002982000
  -0.0001625700    0.0000102500    0.0001918700
   0.0001129600    0.0001936000   -0.0000507200
   0.0009196000   -0.0006264300    0.0000751800
  -0.0001443000    0.0000439200   -0.0002971000
   0.0052837400    0.0006041200   -0.0051632800
  -0.0005467600    0.0000788600    0.0001170600
  -0.0001993400    0.0002815000    0.0000483300
   0.0000614900   -0.0009346900    0.0000602100
  -0.0002212100   -0.0003308500    0.0005343700
   0.0001936900   -0.0008043700    0.0000448700
  -0.0001192800   -0.0003808800   -0.0001172700
   0.0005193600    0.0000137400   -0.0000411300
   0.0003454400    0.0001460200   -0.0003609600
  -0.0000312100    0.0002286500    0.0002445300
   0.0003188800    0.0001395500    0.0001086000
   0.0000409600    0.0001751700    0.0001057700
  -0.0003824000   -0.0017477200    0.0020649300
  -0.0016461900    0.0007665800   -0.0009252600
  -0.0003984400    0.0000814300    0.0000467900
   0.0008659200   -0.0007498400   -0.0011644700
  -0.0000532400    0.0001433700   -0.0000699800
   0.0001392200    0.0001023100   -0.0002636100
   0.0000252800    0.0000440500    0.0000807300
   0.0001667600    0.0005788100   -0.0003973900
   0.0026177500    0.0017960800   -0.0015605000
  -0.0010435000   -0.0000461800    0.0003567400
   0.0001616500    0.0004874900    0.0003157300
  -0.0006748600   -0.0006528000   -0.0000834700
   0.0005672400   -0.0004546100   -0.0002046600
  -0.0000074200    0.0002447000    0.0003675900
  -0.0006745100   -0.0002764200   -0.0002724600
   0.0005979000    0.0006637800    0.0002979500
   0.0002904200    0.0001024500   -0.0001771400
   0.0002758900    0.0000929100   -0.0001212500
   0.0002278400    0.0001181600   -0.0000947900
   0.0002218800    0.0000595200   -0.0000862800
   0.0002840700   -0.0000459300   -0.0000190800
   0.0002036700   -0.0001708200    0.0000128800
   0.0002527800   -0.0000261100   -0.0000773500
   0.0002308900   -0.0001005500   -0.0000363000
   0.0001897200   -0.0001383100   -0.0000188800
  -0.0001019400   -0.0000929300   -0.0000624500
  -0.0000845300    0.0000109300   -0.0001517800
  -0.0000256900   -0.0001830200    0.0000961000
   0.0000207900    0.0002908600    0.0006778800
  -0.0003077100   -0.0002037400   -0.0004897400
   0.0011687800    0.0007049800   -0.0015343700
  -0.0009771600   -0.0002430800    0.0002995800
   0.0651001100   -0.0087422000    0.0102828900
  -0.0023267900   -0.0003651600   -0.0000924600
   0.0001451300    0.0007405500    0.0001543800
  -0.0009523800   -0.0015121800   -0.0000658000

1
 -0.0100000000000000   0.0000000000461602   0.0000000000000000
   0.1253775000   -0.0009093900   -0.0005495100
  -0.0030711000    0.0005930100   -0.0004584700
  -0.0007936200    0.0007625100   -0.0001195400
  -0.0016501800   -0.0012050800    0.0003026800
  -0.0000885900    0.0007373300   -0.0009675900
  -0.0004463800    0.0002914800   -0.0000108500
  -0.0000104800    0.0007957700    0.0001063800
  -0.0003255900    0.0002259900   -0.0002191900
   0.0004015300    0.0004072900   -0.0005776400
   0.0003133900    0.0003764700   -0.0001090400
   0.0004824400    0.0003103900   -0.0002581500
   0.0004294700    0.0003840800   -0.0000590100
   0.0003189700    0.0000191500    0.0002498400
   0.0000020800   -0.0000221900   -0.0004454100
  -0.0000983400    0.0002971000   -0.0001527600
   0.0000315600   -0.0002051900   -0.0003707300
   0.0013920000    0.0014264800   -0.0156336100
  -0.0012081400   -0.0001531400    0.0008265400
   0.0003349400    0.0002590500    0.0006260000
  -0.0017177700   -0.0016823200    0.0001685400
  -0.0079200600   -0.0132479700    0.0020033700
  -0.0075169800    0.0029182100    0.0009444600
  -0.0003150300    0.0010473400    0.0002165600
   0.0049764600   -0.0052393600   -0.0031687100
  -0.0006038800    0.0002842900    0.0000411400
  -0.0009689200   -0.0000791300   -0.0035567900
   0.0024131600   -0.0019348500    0.0006704800
  -0.0009087400    0.0012175800   -0.0006590600
  -0.0023042900    0.0002119400   -0.0003603300
  -0.0001956300    0.0018014600    0.0077013300
   0.0016375900   -0.0027863100   -0.0009866300
  -0.0009643700    0.0010777900    0.0004235700
   0.0005955400   -0.0003567500   -0.0011222100
   0.0002156300   -0.0004206800   -0.0000624700
   0.0008790300   -0.0002118200    0.0006684300
   0.0005355400   -0.0002061300   -0.0006538600
  -0.0017487500   -0.0004970600    0.0009897000
  -0.0006855400    0.0005188200   -0.0092555100
  -0.0000218400   -0.0010617400    0.0000207000
   0.0012040700    0.0004271300    0.0001977100
   0.0003660400   -0.0000475300    0.0001819100
  -0.0003364700   -0.0001610400    0.0001181200
   0.0003084000    0.0000408300   -0.0019408100
   0.0002025400   -0.0000940100    0.0008012200
   0.0001183800   -0.0000237000   -0.0001960200
   0.0001160800    0.0000439900   -0.0002632300
   0.0000574500   -0.0000585500   -0.0001034700
  -0.0000368900    0.0000094100   -0.0002532700
  -0.0007318500    0.0004789600   -0.0002083900
   0.0001677700    0.0005896700   -0.0003237900
   0.0009344600   -0.0013952600    0.0030232800
   0.0006021600    0.0000311200   -0.0010059500
   0.0002504000   -0.0000983800    0.0002664200
  -0.0000335100   -0.0000817800    0.0002461600
   0.0001491200    0.0000105800    0.0002045400
   0.0001585200   -0.0001487600    0.0002357900
   0.0011954700    0.0052917600    0.0045925200
   0.0008934000   -0.0003377400   -0.0006726100
   0.0000787700   -0.0004692500    0.0000036500
  -0.0010081900    0.0039349700   -0.0027728000
   0.0007895000   -0.0006908200   -0.0001251600
  -0.0277367000   -0.0292012000    0.0161706400
   0.0000514700    0.0026558300   -0.0004651100
   0.0003129100   -0.0007080700   -0.0001858800
  -0.0159729400    0.0258386200    0.0067832900
   0.0023850400    0.0005130500   -0.0006949400
  -0.0007374000    0.0001065400    0.0002540800
   0.0001019600    0.0002751000    0.0000000400
   0.0004976100   -0.0003069000   -0.0002705200
   0.0002258000   -0.0004811500   -0.0000192300
  -0.0005892100    0.0003317400   -0.0001535300
   0.0004795500   -0.0003402700    0.0002198600
  -0.0053477100   -0.0010483800    0.0047159700
   0.0004552500   -0.0005161900   -0.0001944800
   0.0001076500   -0.0007194900   -0.0001264700
  -0.0001536300    0.0005021600   -0.0001378400
   0.0004039200   -0.0001365100   -0.0004451700
  -0.0000081400    0.0003334300    0.0000520000
   0.0002996400   -0.0000876200    0.0002085000
  -0.0003411000   -0.0004826200    0.0001327500
  -0.0000314900    0.0002459300    0.0004530400
   0.0003485600    0.0001624100   -0.0001530500
  -0.0000028200    0.0002518500   -0.0000163600
   0.0002748000    0.0002166400   -0.0000128000
   0.0000755300    0.0013700200   -0.0019870600
   0.0013369100   -0.0011586000    0.0010193900
   0.0000833800   -0.0004738800    0.0000473600
  -0.0011851900    0.0003667000    0.0012530400
   0.0001447900    0.0002935200   -0.0000052900
  -0.0000478000    0.0003337600    0.0001880600
   0.0000662100    0.0003934100   -0.0001573800
  -0.0000758300   -0.0001429000    0.0003221900
  -0.0028068600   -0.0013275800    0.0016570800
   0.0008641600    0.0005137800   -0.0002618300
  -0.0003425900   -0.0000196200   -0.0002247300
   0.0004944400    0.0011218500    0.0001771300
  -0.0003221600    0.0005481200    0.0005026600
   0.0002534200   -0.0001509800   -0.0000690000
   0.0009228800    0.0003703400    0.0005733000
  -0.0003518900   -0.0005699900    0.0000007000
   0.0001327000    0.0000373700    0.0000994900
   0.0001493200    0.0000476600    0.0000446100
   0.0001964700    0.0000220300    0.0000168100
   0.0002012400    0.0000819300    0.0000091500
   0.0002099300   -0.0000342400    0.0001099400
   0.0002909700    0.0000923000    0.0000775100
   0.0002415800   -0.0000527900    0.0001677500
   0.0002651700    0.0000214200    0.0001277700
  -0.0002311100   -0.0001188300    0.0003178600
   0.0000622400   -0.0001635800    0.0003620000
   0.0000435300   -0.0002692600    0.0004513600
  -0.0000154600   -0.0000724400    0.0002035000
  -0.0002652900   -0.0003873300   -0.0003854000
   0.0000666700    0.0001109400    0.0007826900
  -0.0014189600   -0.0008023600    0.0018288500
   0.0007352800    0.0001508900   -0.0000021900
  -0.0688691100    0.0087446500   -0.0113422300
   0.0018958700    0.0002276700    0.0000175900
  -0.0005717200   -0.0008839800   -0.0002321800
   0.0005300000    0.0013791000   -0.0000137800

1
 -0.0049999999479489   0.0086602540678961   0.0000000000000000
   0.0617739900   -0.1227243100    0.0187170200
  -0.0020797400    0.0007795300   -0.0003566300
  -0.0010916500    0.0031507600   -0.0003786500
   0.0001806100    0.0004353800    0.0001617000
  -0.0001545800    0.0005235900   -0.0011315600
  -0.0000926900    0.0003916900    0.0000000500
  -0.0000854500    0.0008500000    0.0001001300
  -0.0002886300    0.0005993300   -0.0003545700
   0.0003806500    0.0003074400   -0.0004943300
   0.0003740700    0.0004474500   -0.0004854700
   0.0005211600    0.0003198100   -0.0003202600
   0.0003484900    0.0004276600   -0.0002379000
   0.0000895700   -0.0004100500   -0.0001396400
   0.0003012100   -0.0000988000   -0.0009787200
   0.0000770000    0.0003924800   -0.0001886100
   0.0002899200   -0.0002318400    0.0000596500
  -0.0001795400    0.0010389700   -0.0067517000
  -0.0002855700   -0.0028983000    0.0009936200
   0.0000715500    0.0007748100    0.0007790200
   0.0002926100    0.0012577100   -0.0000944900
  -0.0020013100   -0.0086760700    0.0024840900
  -0.0159207900   -0.0002874700    0.0034743900
   0.0006816500    0.0004546500   -0.0001377800
  -0.0008611200    0.0073608000   -0.0003824400
  -0.0007085300   -0.0000803700   -0.0002422200
  -0.0008048600   -0.0018284100    0.0023686700
   0.0026558000   -0.0007204500    0.0000645900
  -0.0012330600    0.0033447100   -0.0012282500
  -0.0014899200    0.0002464200    0.0001169400
  -0.0012716700    0.0008845400   -0.0070375300
   0.0016096700   -0.0015245800    0.0001623700
  -0.0015732700    0.0016740500    0.0012181200
   0.0002225000   -0.0007394100   -0.0019996100
   0.0001540000   -0.0001610100   -0.0003433100
   0.0007112900   -0.0003172200    0.0004040200
   0.0004427500   -0.0001418000   -0.0000626900
  -0.0005412000   -0.0006432800    0.0006860600
  -0.0000121800   -0.0020432100   -0.0185430300
   0.0002986300   -0.0005684700    0.0004489000
  -0.0010094500    0.0005148000    0.0011595700
   0.0003099000   -0.0003431000    0.0007180500
  -0.0003804100    0.0000171900   -0.0001541400
   0.0000527300    0.0001921500   -0.0009186900
  -0.0000680000    0.0000941400   -0.0011037400
   0.0001145700   -0.0001003800   -0.0002610400
   0.0000544200   -0.0000797100   -0.0002993700
   0.0001133800   -0.0001126100   -0.0004269600
   0.0000082000    0.0001577400   -0.0002422600
  -0.0006188200    0.0003465500   -0.0005385800
   0.0005064000   -0.0004050700   -0.0001709500
   0.0005919400   -0.0005877100    0.0010035500
  -0.0016901900    0.0009650700    0.0016850300
   0.0000994100   -0.0000796200    0.0003202500
   0.0000271900    0.0000533900    0.0003242100
   0.0001910300   -0.0000981400    0.0003274700
   0.0002096700   -0.0002263000    0.0002806100
   0.0007375700    0.0039395500    0.0032110800
   0.0019620300    0.0006152000   -0.0021002500
  -0.0001407600   -0.0004555000   -0.0001723300
  -0.0001164600   -0.0015550400    0.0003208100
   0.0001921100   -0.0000473400   -0.0001130500
   0.0150389000    0.0289463600   -0.0085745300
  -0.0006660900    0.0007960400   -0.0003587100
   0.0017297800   -0.0020896700   -0.0009276400
  -0.0257217100    0.0735035500    0.0113366200
   0.0014915500    0.0004294200   -0.0006358800
   0.0012981100   -0.0017853600   -0.0003179600
  -0.0006795000    0.0000279500   -0.0000122600
   0.0004910500   -0.0002757000   -0.0001989600
   0.0004698500    0.0003898500    0.0002439500
  -0.0006751600    0.0004171400    0.0003093100
   0.0004890900   -0.0005415500    0.0006699400
  -0.0026631400    0.0097068900    0.0048076000
   0.0003293400   -0.0002301800   -0.0000997200
   0.0003042100   -0.0018194400   -0.0003240000
  -0.0003870300   -0.0004099100   -0.0003577400
   0.0002051400   -0.0001367500    0.0000128600
  -0.0006566000    0.0007520000   -0.0000753000
   0.0000955000   -0.0002919600    0.0001008300
   0.0001117200   -0.0003235100   -0.0001955800
   0.0002225100    0.0001760400    0.0004767700
   0.0000158300    0.0003954200    0.0004368600
   0.0000543600    0.0002218400   -0.0001779700
   0.0002906400    0.0001213300    0.0001511600
  -0.0007869300    0.0008412100   -0.0013025600
   0.0044187900   -0.0020095800    0.0041676000
  -0.0002791200   -0.0003084100    0.0000014700
  -0.0000730000   -0.0005815600   -0.0015035600
   0.0001005600    0.0002814300    0.0000280700
  -0.0000955900    0.0005578600    0.0002275600
  -0.0000457000    0.0000168200    0.0003627600
   0.0000295200   -0.0000960000    0.0001388900
  -0.0003338200    0.0007929600    0.0019113500
   0.0003235400    0.0007473400   -0.0003054800
  -0.0000873100   -0.0001553800   -0.0004667800
  -0.0003179300    0.0002420800    0.0001246100
  -0.0005230700    0.0002839300    0.0002954900
   0.0004419800   -0.0002755300   -0.0001560200
   0.0005399700    0.0001913600    0.0003158200
   0.0000940800    0.0000064900    0.0006569400
   0.0001877800    0.0001794100    0.0001731300
   0.0001454200    0.0001073400    0.0001414500
   0.0000586600   -0.0000186200    0.0001016900
   0.0001520800    0.0000741300    0.0000598000
   0.0002787400    0.0000657900    0.0001906300
   0.0003474700    0.0000054300    0.0002320900
   0.0002656500   -0.0000503100    0.0001632700
   0.0002902600    0.0000294000    0.0003064000
  -0.0000787900    0.0000151100    0.0001993700
   0.0000031400    0.0000409700    0.0003599500
   0.0001029400   -0.0004461100    0.0007268600
  -0.0000150200   -0.0002176900    0.0002104400
   0.0001316500   -0.0000465700   -0.0003025800
  -0.0001886700    0.0001438800   -0.0001688000
  -0.0020324200   -0.0011874500    0.0033026700
   0.0007781300   -0.0002583300    0.0002551400
  -0.0379386600    0.0098249400   -0.0092046600
   0.0021286700    0.0007846000   -0.0003609600
  -0.0005631500   -0.0011103900   -0.0001717500
  -0.0005959900   -0.0008223400   -0.0001991600

1
  0.0049999999479489  -0.0086602540678961   0.0000000000000000
  -0.0633079200    0.1264787800   -0.0177647000
   0.0019917700   -0.0008065000    0.0001826900
   0.0009802500   -0.0031593300    0.0002017000
  -0.0002848200   -0.0004684200   -0.0003369900
  -0.0000906700    0.0005944500    0.0010079600
  -0.0001509700    0.0007270100   -0.0001347700
  -0.0001584600    0.0002651700   -0.0002337900
   0.0000454100    0.0005176600    0.0002208900
   0.0004711700    0.0004608900    0.0003605300
   0.0004773300    0.0003211900    0.0003521700
   0.0003301200    0.0004488000    0.0001879500
   0.0005033500    0.0003395000    0.0001050100
  -0.0000185400    0.0003349200   -0.0000367100
  -0.0002326400    0.0000215900    0.0008043300
  -0.0000096600   -0.0004713800    0.0000116300
  -0.0002159200    0.0001477200   -0.0002349400
   0.0001099700   -0.0009545300    0.0065918000
   0.0002181700    0.0029889700   -0.0011756400
  -0.0001408300   -0.0007002900   -0.0009535300
  -0.0003657300   -0.0011842300   -0.0000800600
   0.0011371100    0.0079218300   -0.0026107000
   0.0151189500   -0.0005453000   -0.0036146700
  -0.0015329500   -0.0012225600    0.0000029300
   0.0000525100   -0.0080989900    0.0002180300
   0.0006751800   -0.0000169400    0.0000649400
   0.0007768100    0.0016797100   -0.0025493700
  -0.0026946400    0.0006246900   -0.0002404900
   0.0012106700   -0.0034576700    0.0010550500
   0.0004029700    0.0001091900   -0.0002507100
   0.0001789900   -0.0005249200    0.0069238600
  -0.0027025400    0.0018784000   -0.0003013200
   0.0004887500   -0.0013310800   -0.0013509100
   0.0008689100    0.0003911000    0.0018755500
   0.0009374500   -0.0001924400    0.0002106800
   0.0003805300   -0.0000381000   -0.0005335300
   0.0006433100   -0.0002109400   -0.0000747100
   0.0007879100   -0.0004749800   -0.0008229800
   0.0002608100    0.0009440400    0.0185355800
  -0.0000563600   -0.0005555500   -0.0005826800
   0.0012488300   -0.0016280100   -0.0012810100
  -0.0002811700    0.0004449200   -0.0008984700
   0.0004111200    0.0000818100   -0.0000213100
  -0.0000231000   -0.0000931400    0.0007443100
   0.0000946700    0.0000046700    0.0009275000
  -0.0000131400    0.0001269600    0.0000855300
   0.0000460400    0.0001065700    0.0001246300
  -0.0000136100    0.0001379300    0.0002516500
   0.0000930800   -0.0001326800    0.0000677000
   0.0002801500   -0.0000566800    0.0004671900
  -0.0008474700    0.0006956300    0.0000926600
  -0.0009342400    0.0008775200   -0.0010858800
   0.0013558800   -0.0006827200   -0.0017586500
   0.0000976300   -0.0000869900   -0.0000256400
   0.0001700000   -0.0002199700   -0.0000298400
   0.0000058300   -0.0000676000   -0.0000330100
  -0.0000134600    0.0000612700    0.0000133500
  -0.0006859700   -0.0036959700   -0.0029072300
  -0.0019373600   -0.0003647700    0.0024127000
   0.0001829000    0.0007057500    0.0004645900
   0.0001513800    0.0018140100   -0.0000290700
  -0.0006957700    0.0001232200    0.0002072000
  -0.0151396600   -0.0286712100    0.0084085500
   0.0001720600   -0.0007165400    0.0004519400
  -0.0022159700    0.0021592500    0.0010172200
   0.0272066500   -0.0770322600   -0.0113978700
  -0.0016959500   -0.0002658600    0.0009314000
  -0.0014928900    0.0019405100    0.0006125100
   0.0004834200    0.0001393500    0.0003063400
  -0.0001491100   -0.0000132200    0.0001193700
  -0.0001296000   -0.0006686300   -0.0003157200
   0.0010179000   -0.0007080100   -0.0003897800
  -0.0001499700    0.0002545600   -0.0007514600
   0.0026038300   -0.0101853900   -0.0052486400
  -0.0004121100   -0.0002086700    0.0000219900
  -0.0003858700    0.0013806300    0.0002436500
   0.0003066500   -0.0000265900    0.0002803800
  -0.0000188300   -0.0003350100    0.0000813000
   0.0008444700   -0.0012267000    0.0001659400
   0.0000939000   -0.0001772400   -0.0000046700
   0.0000741400   -0.0001468300    0.0002879100
   0.0000914500    0.0002226600   -0.0003852700
   0.0003009200    0.0000019800   -0.0003431600
   0.0002614100    0.0001764400    0.0002731500
   0.0000245300    0.0002776100   -0.0000568200
   0.0004716200   -0.0012362100    0.0013916200
  -0.0047636200    0.0016270500   -0.0040964000
  -0.0000344500   -0.0000902700    0.0000953600
  -0.0002535700    0.0001808900    0.0015925900
  -0.0000195300    0.0001565200   -0.0001051800
   0.0001778600   -0.0001217400   -0.0003060900
   0.0001275300    0.0004225600   -0.0004404500
   0.0000516800    0.0005355200   -0.0002175600
   0.0001464900   -0.0003228900   -0.0018286100
  -0.0005127000   -0.0002788300    0.0004016200
  -0.0000993600    0.0006281400    0.0005614600
   0.0001320300    0.0002300800   -0.0000297200
   0.0007644600   -0.0001962600   -0.0000014300
  -0.0002030400    0.0003656600    0.0004516500
  -0.0003012500   -0.0001048800   -0.0000218800
   0.0001489500    0.0000833100   -0.0003643200
   0.0002319600   -0.0000308800   -0.0002525100
   0.0002759100    0.0000420800   -0.0002207700
   0.0003634900    0.0001688300   -0.0001809800
   0.0002676800    0.0000772000   -0.0001390000
   0.0002215800   -0.0001422900   -0.0000992300
   0.0001524600   -0.0000811400   -0.0001403100
   0.0002346100   -0.0000238700   -0.0000719500
   0.0002111000   -0.0001052600   -0.0002135800
   0.0000347600   -0.0002644600    0.0000967100
  -0.0000455100   -0.0002920000   -0.0000645700
  -0.0001461100    0.0001979400   -0.0004348700
  -0.0000286600   -0.0000299900    0.0000835700
  -0.0003676600   -0.0000408800    0.0005928500
  -0.0000450100   -0.0002246800    0.0004632500
   0.0018015500    0.0011046000   -0.0030351600
  -0.0010221000    0.0001706800    0.0000376200
   0.0368052100   -0.0102084900    0.0088702600
  -0.0025656300   -0.0009353800    0.0002828500
   0.0001414500    0.0009541600    0.0000938100
   0.0001764700    0.0006811300    0.0001221100

1
  0.0000000000000000   0.0000000000000000   0.0100000000000000
   0.0012286700    0.0213947800   -0.1178914800
   0.0003198200   -0.0001084800   -0.0009919100
  -0.0000219600   -0.0003279100   -0.0006707900
  -0.0004426300    0.0000515100   -0.0012997900
  -0.0005818800    0.0006226700    0.0043116800
  -0.0000684100    0.0007085200    0.0005604800
  -0.0000474900    0.0005585700    0.0004468600
  -0.0000367600    0.0006259800    0.0006586700
   0.0004318800    0.0004592300    0.0019138700
   0.0006457400    0.0003757100    0.0008843600
   0.0006145700    0.0002653900    0.0007150800
   0.0005648600    0.0005061600    0.0006997700
  -0.0005027500   -0.0006649100    0.0003340000
   0.0019416900    0.0000296000    0.0006799500
   0.0003091800   -0.0001231500    0.0003389800
  -0.0009807300    0.0015052600    0.0005579700
   0.0058534400   -0.0005399300    0.0035222600
  -0.0006382700    0.0005667500   -0.0001368400
  -0.0003180100    0.0000273800   -0.0004541200
  -0.0006073600   -0.0009481400    0.0000850800
   0.0013940800    0.0049011900   -0.0013948000
  -0.0005002600    0.0007551800   -0.0005336800
  -0.0006575400   -0.0007650700   -0.0009567400
   0.0043602100   -0.0059135400   -0.0038435600
  -0.0008856600   -0.0003756600   -0.0004585800
   0.0066624500    0.0140389000    0.0035291000
  -0.0011019900   -0.0004897800   -0.0001398700
  -0.0000106900   -0.0003488800    0.0000834000
  -0.0000778000    0.0002044300    0.0001235800
  -0.0028014700   -0.0031094700    0.0032073400
  -0.0007387500    0.0008733500    0.0002423800
  -0.0004845700    0.0004347600   -0.0001759500
  -0.0006291500   -0.0016940800    0.0004887800
   0.0006289700   -0.0000275200    0.0000842500
   0.0000951500    0.0003326700    0.0005934800
   0.0018501600   -0.0002234100    0.0011116000
  -0.0003098700   -0.0002134700   -0.0010281400
   0.0081189300   -0.0165604900   -0.0012039700
   0.0006178700    0.0011279000   -0.0017002000
  -0.0007959500    0.0004991900   -0.0009198100
  -0.0000370500    0.0004676500    0.0003362200
  -0.0000833700    0.0000352600    0.0003410900
   0.0001612600   -0.0003546100    0.0005612000
  -0.0008690400    0.0001535300    0.0006837100
  -0.0000553400    0.0001494200    0.0004507400
  -0.0001212400    0.0001558300    0.0012584700
   0.0000374500    0.0003949800    0.0006751800
  -0.0001116800    0.0000963500    0.0005811300
   0.0000091300   -0.0000316400   -0.0000226500
  -0.0003476000    0.0004041600   -0.0001918800
  -0.0010036500    0.0004849400   -0.0002656700
   0.0004131600    0.0001524600   -0.0001303300
   0.0000098300   -0.0000952300   -0.0003356400
   0.0000908800   -0.0001680800   -0.0007166500
   0.0000681000   -0.0001440400   -0.0003134100
   0.0000557400   -0.0000882500   -0.0002861100
  -0.0006610200   -0.0003194300   -0.0001987400
  -0.0001255500   -0.0005502500    0.0005587500
   0.0000178600    0.0002868600    0.0001445400
   0.0002522000    0.0014161900   -0.0006138200
  -0.0006436300    0.0004925100    0.0004847300
  -0.0198551400   -0.0202475400    0.0200403800
  -0.0003517600   -0.0005753400    0.0006939600
  -0.0005380800    0.0001530700    0.0007279600
  -0.0046032800    0.0069744100    0.0083773200
  -0.0008413200   -0.0004626800    0.0012563800
  -0.0005397600    0.0006464900    0.0011149300
   0.0003688200   -0.0000468100    0.0009466800
   0.0003568900   -0.0002088900   -0.0002600800
  -0.0005066600   -0.0025175600   -0.0020671100
   0.0004380400    0.0000125500    0.0000023900
  -0.0003783000    0.0000253200    0.0000136900
  -0.0065751100    0.0018156400    0.0764484600
   0.0001028600    0.0001575900    0.0005869700
   0.0000589600    0.0000942500    0.0005356500
   0.0001006100   -0.0001667300    0.0006114600
   0.0001707100   -0.0001837000    0.0000039300
  -0.0011016600    0.0013117800   -0.0021663200
  -0.0004700900   -0.0007245000   -0.0005298600
   0.0002866200   -0.0004562800   -0.0000023500
  -0.0003027300    0.0002880900   -0.0013780700
   0.0003362200    0.0000307600   -0.0006229600
   0.0002171400    0.0000378500   -0.0004450100
   0.0001502000    0.0001410100   -0.0004504100
   0.0009312400   -0.0009700100    0.0014610300
  -0.0001493900    0.0011196700    0.0015615000
  -0.0000035200   -0.0004240600    0.0008332000
   0.0002869000   -0.0029296700    0.0027867800
   0.0001096700    0.0002559900   -0.0004286100
   0.0002996400   -0.0002137900   -0.0010767400
   0.0002787200    0.0003608800   -0.0006079600
   0.0001118600    0.0004564000   -0.0005231100
  -0.0004581600    0.0007793000   -0.0045563500
  -0.0000654200    0.0001602400   -0.0001086900
  -0.0000073800    0.0002581200    0.0000299200
   0.0000827400    0.0003277900   -0.0001805800
   0.0001262900   -0.0001272500   -0.0002530200
   0.0000896500   -0.0000056300   -0.0001915900
  -0.0001311800   -0.0000119600   -0.0002516100
   0.0010852000    0.0006211800   -0.0007869200
   0.0005084800    0.0002067400   -0.0007284700
   0.0000802300   -0.0000727600   -0.0009300400
   0.0002591200    0.0000072000   -0.0005010700
   0.0005024700   -0.0002153100   -0.0006700800
   0.0003453000    0.0001465900   -0.0009239200
   0.0002178000   -0.0001507100   -0.0004063300
   0.0002353700   -0.0002636000   -0.0007090000
  -0.0001229300   -0.0001547100   -0.0008137300
   0.0002678700   -0.0000903100   -0.0007377500
  -0.0003456700   -0.0000622700   -0.0003801500
   0.0000136900    0.0001161100   -0.0001544300
   0.0000187100   -0.0005750800   -0.0000498900
   0.0005366700   -0.0001026500    0.0005770200
  -0.0029676100   -0.0024490400    0.0003524200
  -0.0000819300    0.0013269200    0.0009202200
  -0.0002973100   -0.0002159700    0.0004727400
   0.0123191400   -0.0054144400    0.0078582800
   0.0000291300   -0.0002304000    0.0004283000
  -0.0000490600    0.0000169900    0.0003044900
  -0.0000336900    0.0010509500    0.0005725800

1
  0.0000000000000000   0.0000000000000000  -0.0100000000000000
  -0.0014913600   -0.0223037400    0.1134982200
  -0.0004225800    0.0000828000    0.0008099000
  -0.0000812800    0.0003051900    0.0004907000
   0.0003384100   -0.0000760700    0.0011171900
   0.0003504300    0.0004960500   -0.0045057500
  -0.0001733900    0.0004087200   -0.0006923100
  -0.0001939700    0.0005595400   -0.0005790000
  -0.0002058200    0.0004927300   -0.0007910400
   0.0004211800    0.0003073100   -0.0020573400
   0.0002077500    0.0003924600   -0.0010190800
   0.0002392300    0.0005006500   -0.0008505500
   0.0002880300    0.0002614800   -0.0008348500
   0.0005727200    0.0005836000   -0.0005126500
  -0.0018666100   -0.0001144100   -0.0008592500
  -0.0002373800    0.0000416600   -0.0005165400
   0.0010531900   -0.0015870500   -0.0007350200