56
14

1
  0.0100000000000000   0.0000000000000000   0.0000000000000000
  -0.2393601700    0.0128442900    0.0121562900
  -0.0063926900    0.0003463900    0.0001425600
  -0.0053315200   -0.0148308600    0.0010086200
  -0.0024846100    0.0130103100   -0.0005477400
  -0.0019401300    0.0004724200   -0.0136464100
   0.0026332500   -0.0076727100   -0.0079490200
   0.0019967800    0.0064495300    0.0072225800
   0.0282234700   -0.0063822800    0.0071609800
   0.0035362000   -0.0009576700    0.0011875100
   0.0037194000    0.0002803200   -0.0006373000
   0.0055734100   -0.0006952500   -0.0003439300
   0.0055499100    0.0001432100    0.0006951100
   0.0244909400    0.0075954000    0.0059653500
   0.0253542100   -0.0067910400   -0.0078079000
   0.0031834400   -0.0011648700   -0.0008468200
   0.0026957600    0.0081302900   -0.0072419000
  -0.0005661100   -0.0081251300    0.0078777800
  -0.0039825200    0.0138843900   -0.0003638700
  -0.0054506900   -0.0004363100    0.0128154900
  -0.0044128600   -0.0009733300   -0.0143524100
  -0.0015676600    0.0001119600    0.0047541400
   0.0091984900    0.0024893000   -0.0024721300
   0.0012650200    0.0004253000    0.0003266400
  -0.0015613800   -0.0045424100    0.0001480800
  -0.0115055000   -0.0023608100    0.0019786500
  -0.0023830700   -0.0003589200    0.0003167800
   0.0421298700    0.0217364300    0.0214860800
   0.0547233900   -0.0323839000   -0.0346217400
   0.0031695200   -0.0027268200    0.0037814600
   0.0067109900   -0.0026957800    0.0026074200
   0.0051477900    0.0029463300    0.0030263700
   0.0053710200   -0.0012788400   -0.0011451500
   0.0059516700    0.0027620700    0.0033846200
   0.0483569900    0.0337973500   -0.0318713900
   0.0028550600   -0.0031364300   -0.0022310800
   0.0576871400   -0.0344281300    0.0344510800
  -0.0060392700    0.0032589200   -0.0005273000
  -0.0044103900   -0.0001181600    0.0021726800
  -0.0045646600   -0.0018691000    0.0002012500
  -0.0017573500    0.0004948700    0.0005974400
  -0.0050117100    0.0000632800   -0.0026093800
  -0.0118402000   -0.0022278600   -0.0019086100
  -0.0117359800    0.0015121500    0.0023984100
  -0.0023374200   -0.0002513300   -0.0004051800
  -0.0019806400    0.0008140900   -0.0006590000
  -0.0046929400    0.0025940200    0.0005362700
  -0.0110679900    0.0031203000   -0.0029709700
  -0.0057536800   -0.0000388700   -0.0034955100
  -0.0057540900   -0.0034096200    0.0004129100
  -0.0055851400    0.0004292500    0.0027899200
   0.0018459100    0.0031854800    0.0031555100
   0.0029822900   -0.0047671900   -0.0045262300
   0.0060955700    0.0002682400   -0.0012806800
   0.0059044400    0.0023316600   -0.0007764600
   0.0020138400    0.0033063700   -0.0036618200
   0.0011046100   -0.0041803200    0.0041419000

1
 -0.0100000000000000   0.0000000000000000   0.0000000000000000
   0.2393830700   -0.0124930900   -0.0131659000
   0.0064023300   -0.0003544000   -0.0001331100
   0.0053298300    0.0148909900   -0.0009992400
   0.0024498200   -0.0130601900    0.0005247900
   0.0019008000   -0.0004421600    0.0136993800
  -0.0027075800    0.0075960600    0.0078921100
  -0.0020564000   -0.0063749400   -0.0071576000
  -0.0281879800    0.0062211000   -0.0070118900
  -0.0035616200    0.0009513800   -0.0011991500
  -0.0037530800   -0.0002795400    0.0006294000
  -0.0055874300    0.0007065500    0.0003567900
  -0.0055370300   -0.0001342100   -0.0007042500
  -0.0244998800   -0.0077397900   -0.0060948500
  -0.0253577900    0.0069183800    0.0079679200
  -0.0031625100    0.0011544700    0.0008474100
  -0.0026429000   -0.0081843000    0.0072980100
   0.0006591300    0.0081884700   -0.0079612800
   0.0040131700   -0.0138180200    0.0003448700
   0.0054685800    0.0004256800   -0.0127495500
   0.0044232200    0.0009856500    0.0142784400
   0.0015592100   -0.0001178300   -0.0047750700
  -0.0091863700   -0.0024410100    0.0024247600
  -0.0012549600   -0.0004242300   -0.0003265200
   0.0015740200    0.0045183300   -0.0001432100
   0.0115919200    0.0023589200   -0.0019833600
   0.0024135500    0.0004100000   -0.0003543900
  -0.0430174000   -0.0231051000   -0.0228303900
  -0.0558439200    0.0340038800    0.0365250100
  -0.0032242700    0.0026800600   -0.0038237500
  -0.0067844800    0.0027309000   -0.0025637700
  -0.0050844100   -0.0029045300   -0.0030713800
  -0.0052994800    0.0013111100    0.0011055200
  -0.0058796000   -0.0028131700   -0.0033478500
  -0.0477079400   -0.0323779400    0.0304889700
  -0.0027985600    0.0030973700    0.0022806300
  -0.0563595100    0.0324607100   -0.0326987100
   0.0061325300   -0.0033074600    0.0004676000
   0.0044842300    0.0000678000   -0.0021971000
   0.0046370100    0.0018933000   -0.0001476400
   0.0017376100   -0.0004460400   -0.0005437400
   0.0050707800   -0.0000018200    0.0026383300
   0.0117460400    0.0022304100    0.0018796900
   0.0116460200   -0.0014840700   -0.0024023000
   0.0023069300    0.0002004700    0.0003575100
   0.0020163200   -0.0008554800    0.0007125500
   0.0046333200   -0.0025640200   -0.0005946500
   0.0111751100   -0.0031384500    0.0029810400
   0.0056718400    0.0000886900    0.0034612400
   0.0056635300    0.0033759500   -0.0003640800
   0.0054863900   -0.0004855000   -0.0027429800
  -0.0018145100   -0.0031299700   -0.0031081900
  -0.0029522200    0.0047044200    0.0044667000
  -0.0061647300   -0.0003133500    0.0012474400
  -0.0059717300   -0.0022872300    0.0008185100
  -0.0020420900   -0.0033502300    0.0037190400
  -0.0011359500    0.0042570100   -0.0042177700

3
  0.0100000000000000   0.0000000000000000   0.0000000000000000
  -0.0052885200   -0.0078944800    0.0004635700
  -0.0043707600    0.0005458800   -0.0063028500
  -0.2171544800   -0.0137648100   -0.0287054400
  -0.0101513500    0.0002206900   -0.0015528200
  -0.0028180100   -0.0001334700   -0.0000231900
  -0.0040463500   -0.0004504900   -0.0060215500
  -0.0019594500   -0.0068478200    0.0009900300
   0.0110004300    0.0352246500   -0.0011989300
   0.0121082700   -0.0001634800    0.0352301200
   0.0002793200    0.0006420300   -0.0002741900
   0.0245847700   -0.0128062100   -0.0138789200
   0.0037396600    0.0012012800    0.0011597200
   0.0071604800   -0.0004984300    0.0002688100
   0.0017266700   -0.0007292500   -0.0001338700
   0.0066202400    0.0003549100    0.0000358900
   0.0280921900   -0.0130043300   -0.0143056100
   0.0031768300    0.0009482900    0.0006271700
   0.0109565000    0.0016064500    0.0364606300
  -0.0003530100    0.0007126000   -0.0003557800
  -0.0007001300   -0.0008350800    0.0008468700
  -0.0045348000   -0.0001594700   -0.0000596900
   0.0000776000    0.0000140800    0.0002115200
   0.0005799900    0.0000160200    0.0001350300
   0.0050656900    0.0140746500    0.0004111800
  -0.0103018800    0.0002541100   -0.0002431900
  -0.0120381900   -0.0003968000    0.0000218000
  -0.0007975700    0.0044679300   -0.0056583300
   0.0008406800    0.0000837100   -0.0002426300
  -0.0004351800    0.0050098500    0.0053825200
   0.0629375200    0.0015043500    0.0006116900
   0.0228499900    0.0012984300   -0.0026452000
   0.0023309300    0.0003966000   -0.0007631100
   0.0026007700   -0.0000326000   -0.0000062800
   0.0018747900    0.0001501200    0.0006582000
   0.0206802100   -0.0021240900    0.0018050900
   0.0249588400   -0.0000253200    0.0019358500
   0.0246916100   -0.0002986900   -0.0012751400
   0.0001638700    0.0000217000   -0.0001871400
   0.0005148400    0.0033473800    0.0047751100
   0.0009797300   -0.0000248600   -0.0001711200
  -0.0019046700   -0.0059559400   -0.0061311000
   0.0000475100   -0.0001834900    0.0003302000
  -0.0015912200   -0.0038891700    0.0043532500
  -0.0012605300    0.0029019600   -0.0042618300
  -0.0026823700    0.0001193800   -0.0003100100
  -0.0074864300    0.0017006900   -0.0004097200
  -0.0020156500   -0.0000497600    0.0002829300
  -0.0031270400    0.0002638800   -0.0003870300
  -0.0116237300   -0.0003415600   -0.0007610200
  -0.0025532100   -0.0000290900   -0.0001094000
  -0.0007487600   -0.0033574500    0.0029384400
   0.0013719900   -0.0003680500   -0.0004906100
   0.0002645500   -0.0046245600   -0.0047473100
   0.0004437500    0.0003306100    0.0003881100
   0.0248330800    0.0017366800    0.0015296200
   0.0023899700   -0.0001601500   -0.0002403400

3
 -0.0100000000000000   0.0000000000000000   0.0000000000000000
   0.0053737000    0.0078827900   -0.0004510600
   0.0044663800   -0.0005275600    0.0063011200
   0.2196338400    0.0131890500    0.0292260200
   0.0101450700   -0.0001071300    0.0016585800
   0.0028104700    0.0001399900    0.0000253800
   0.0039500000    0.0004135300    0.0060360800
   0.0018820900    0.0068606400   -0.0010152800
  -0.0109549500   -0.0348957300    0.0011915200
  -0.0120462300    0.0001633800   -0.0348902400
  -0.0003070600   -0.0006296700    0.0002650000
  -0.0244087500    0.0127620500    0.0138264300
  -0.0037312900   -0.0011840300   -0.0011595700
  -0.0071495600    0.0005041800   -0.0002713700
  -0.0017316600    0.0007149800    0.0001392500
  -0.0066290700   -0.0003729400   -0.0000184100
  -0.0283155400    0.0130677300    0.0143259900
  -0.0031683900   -0.0009610300   -0.0006395200
  -0.0109989600   -0.0016063900   -0.0367754600
   0.0003790600   -0.0007232900    0.0003704400
   0.0007233800    0.0008416400   -0.0008527900
   0.0045361100    0.0001090400    0.0000109800
  -0.0000877200   -0.0000124800   -0.0002061400
  -0.0005791100   -0.0000163200   -0.0001335200
  -0.0050963600   -0.0142152100   -0.0004168500
   0.0103415300   -0.0002906500    0.0002841900
   0.0120822900    0.0004371600   -0.0000457500
   0.0008095300   -0.0044546300    0.0057296300
  -0.0008353900   -0.0001091900    0.0002056500
   0.0003852400   -0.0050833300   -0.0054611900
  -0.0690991600   -0.0012106500   -0.0009287100
  -0.0228234600   -0.0012494500    0.0028282400
  -0.0022963200   -0.0003717300    0.0007512900
  -0.0025663000    0.0000130900    0.0000329900
  -0.0019107200   -0.0001910900   -0.0006516400
  -0.0206637000    0.0023678000   -0.0017414900
  -0.0250376000   -0.0002557400   -0.0019532100
  -0.0208939100    0.0003713400    0.0012465300
  -0.0001071600   -0.0000618100    0.0001536600
  -0.0004388700   -0.0032921400   -0.0047047300
  -0.0009764700    0.0000610400    0.0002105200
   0.0019495600    0.0059566000    0.0061289900
  -0.0000438500    0.0002184000   -0.0002981400
   0.0015772000    0.0038318100   -0.0043626700
   0.0012536000   -0.0029224600    0.0041996900
   0.0027265700   -0.0001511100    0.0003465800
   0.0074517500   -0.0016453800    0.0003704600
   0.0020470000    0.0000875100   -0.0003257100
   0.0030877200   -0.0002326000    0.0003431500
   0.0115721900    0.0003016600    0.0007773700
   0.0025143700   -0.0000112800    0.0001518000
   0.0007641300    0.0034160200   -0.0029340300
  -0.0013769900    0.0003319400    0.0004538300
  -0.0003362700    0.0046059000    0.0047471100
  -0.0004998100   -0.0002911100   -0.0003518800
  -0.0249270700   -0.0017470100   -0.0019534400
  -0.0024250600    0.0001738400    0.0002043500

3
  0.0000000000000000   0.0100000000000000   0.0000000000000000
  -0.0148871300    0.0254509700   -0.0137103000
   0.0009980400   -0.0024288400   -0.0070840000
  -0.0139558800   -0.1932708100   -0.0129996000
   0.0011522100    0.0120448600    0.0364524400
  -0.0000273300    0.0017352300   -0.0008209500
  -0.0003715900   -0.0055083900   -0.0076603600
  -0.0136353300    0.0252617800   -0.0148346900
   0.0367850200    0.0121097400    0.0011421600
  -0.0012014900   -0.0101577600    0.0011383200
   0.0006257300    0.0003168100    0.0004970200
  -0.0076741400   -0.0054118800   -0.0003387100
   0.0002866700    0.0035544200    0.0008456500
   0.0005049400    0.0002933200    0.0006458800
  -0.0008295900    0.0017235200   -0.0000212100
  -0.0000322500   -0.0003559100    0.0010077000
  -0.0070885200   -0.0025060700    0.0009599400
   0.0008483800    0.0035435300    0.0002724600
   0.0012516600   -0.0101387700   -0.0010929100
   0.0010170000   -0.0003757400   -0.0000223000
   0.0008265300    0.0071960200    0.0008501600
   0.0005291000    0.0056023100    0.0141788700
   0.0000054200    0.0027986400    0.0000040100
  -0.0000221500   -0.0010876200   -0.0000220400
   0.0140281400    0.0055587500    0.0005229100
  -0.0002651500    0.0002058800   -0.0001880500
   0.0002137600    0.0024529900   -0.0009143300
   0.0043978900    0.0009186500    0.0041044100
   0.0021331100   -0.0080272100   -0.0007881200
   0.0026408500   -0.0012334800   -0.0034695400
  -0.0017554000    0.0207490600    0.0017929700
   0.0013559700    0.0232097700   -0.0014057300
  -0.0007861700   -0.0080194500    0.0021241100
   0.0000126100    0.0004300100    0.0000630900
  -0.0007140700   -0.0110532000   -0.0002076400
   0.0024046400    0.0347744800    0.0006808100
   0.0009325800    0.0393770100    0.0021016100
  -0.0016415500    0.0231993000    0.0013455300
   0.0002967700   -0.0025053300   -0.0001840400
   0.0045857100    0.0002075200   -0.0058446700
   0.0004142600    0.0025143800    0.0001690900
  -0.0043999900   -0.0000271700   -0.0042910200
  -0.0001949500   -0.0110461100   -0.0007072600
  -0.0058819700    0.0002327000    0.0046115700
   0.0040836400    0.0008803200    0.0043689000
   0.0002597100   -0.0003393600    0.0001077400
   0.0000680200    0.0004053100    0.0000159500
  -0.0001776500   -0.0025034900    0.0002916500
   0.0001084600   -0.0003256400    0.0002542200
   0.0001618100    0.0025184600    0.0003880900
  -0.0000614200   -0.0025058200   -0.0002446800
  -0.0034485600   -0.0012601500    0.0026187200
  -0.0009390000    0.0024557600    0.0002162900
  -0.0042677600   -0.0000606700   -0.0043735500
  -0.0002498400   -0.0025007100   -0.0000616000
   0.0017697400    0.0207541300   -0.0022223800
  -0.0001894700    0.0001739900   -0.0002626000

21
  0.0100000000000000   0.0000000000000000   0.0000000000000000
  -0.0015567200    0.0001353500    0.0024608400
  -0.0015526800    0.0024454300    0.0001133600
  -0.0045330200    0.0005515000    0.0004364700
  -0.0010932400   -0.0000125800   -0.0000189100
  -0.0045484900    0.0003911100    0.0004995700
  -0.0015954000    0.0001165900    0.0024520600
  -0.0015833500    0.0024695400    0.0001556800
   0.0050880700   -0.0000385100   -0.0141709500
   0.0055887300   -0.0142174700   -0.0001377300
   0.0000717100    0.0000058400   -0.0002137500
   0.0012486500   -0.0003220500   -0.0004217500
   0.0092232200    0.0047791100    0.0045352800
   0.0005793900    0.0000215000   -0.0001310900
   0.0027940100    0.0000114200    0.0000137500
   0.0005727500   -0.0001383300    0.0000228500
   0.0091512900    0.0045274000    0.0047506100
   0.0012598500   -0.0004276700   -0.0003307100
   0.0000862300   -0.0002034600    0.0000031300
   0.0055589900   -0.0001309900   -0.0140739800
   0.0050610500   -0.0140357900   -0.0000316600
  -0.0505102300    0.0108938600    0.0108895400
  -0.0000214300   -0.0001055500   -0.0000317700
   0.0009177400    0.0000307600    0.0000330300
  -0.0000177700   -0.0000321800   -0.0001041200
  -0.0033755800    0.0000281400    0.0003451600
  -0.0035793700    0.0003216000    0.0001247000
   0.0002114900    0.0001280600    0.0000566800
  -0.0006813300    0.0015152700   -0.0016326000
   0.0021703300   -0.0000483500   -0.0002371100
   0.0001999500   -0.0013979300   -0.0019295200
   0.0009534700    0.0000778500    0.0000616200
   0.0071449400    0.0011048900   -0.0004009200
   0.0071655000   -0.0004338200    0.0009357700
   0.0007580200    0.0000936900    0.0000577500
   0.0007635000    0.0000586700    0.0000854300
   0.0071465400   -0.0003977600    0.0011620500
  -0.0000134600    0.0019637000    0.0019152000
   0.0002165700   -0.0019429100   -0.0014123900
   0.0000817200    0.0000521100   -0.0001195000
  -0.0000486100    0.0018375100   -0.0013688900
   0.0031096000   -0.0002623100   -0.0000730600
  -0.0006696800   -0.0016407000    0.0015292400
   0.0002217800   -0.0000534500    0.0001229800
   0.0002226700    0.0000545200    0.0001274800
  -0.0009325600    0.0001291100   -0.0000305300
  -0.0008439800    0.0001395600   -0.0000772400
  -0.0008407100   -0.0000784700    0.0001364100
  -0.0035802400    0.0001288400    0.0003117000
  -0.0009354700   -0.0000300100    0.0001343300
  -0.0033788900    0.0003356300    0.0000324600
   0.0002099300    0.0001225900   -0.0000494600
  -0.0000556100   -0.0013638400    0.0018279100
   0.0000771000   -0.0001215400    0.0000469900
  -0.0000311100    0.0019076500    0.0019563300
   0.0071705000    0.0009912900   -0.0004247600
   0.0009535900    0.0000656200    0.0000860200

25
  0.0100000000000000   0.0000000000000000   0.0000000000000000
  -0.0115594300   -0.0008225000    0.0029367400
  -0.0023120200    0.0003803000   -0.0002245800
  -0.0103210400   -0.0002601200   -0.0002256300
  -0.0025022100    0.0000143900   -0.0003085200
  -0.0025361600    0.0003693500   -0.0000617800
  -0.0060942500   -0.0042222800   -0.0027630600
  -0.0055348800    0.0032929700    0.0041812600
   0.0208953600   -0.0027606700    0.0015998100
   0.0008911900   -0.0044592700    0.0029010700
   0.0004563400   -0.0002447400    0.0001243900
   0.0050916400   -0.0019720700   -0.0022877700
   0.0059293700    0.0030399400    0.0023538500
   0.0228025700   -0.0013622300    0.0013048200
   0.0231597900   -0.0003710800    0.0012911200
   0.0024048500    0.0002662600    0.0001831700
   0.0429440600   -0.0230824800    0.0228137200
   0.0011496100   -0.0004517500    0.0004782500
  -0.0007805000    0.0042379400    0.0043946300
   0.0001972000   -0.0001655000   -0.0002733100
  -0.0012463700   -0.0041007200   -0.0056925700
  -0.0033709500    0.0000629200    0.0000537200
  -0.0000238000    0.0019568300   -0.0019077700
   0.0009594600   -0.0001255000   -0.0000330800
   0.0002272500   -0.0003365900    0.0000834100
  -0.1702869800    0.0332366200   -0.0333582300
  -0.0046788000   -0.0009163100    0.0009777100
   0.0078327400   -0.0009108000   -0.0131745400
   0.0131040800    0.0157666800    0.0016947300
   0.0058742100    0.0006825600    0.0112341500
   0.0099087100   -0.0099627500   -0.0010576300
   0.0039764400    0.0005863500   -0.0006339100
   0.0038737100    0.0003811700   -0.0002291200
   0.0057406300   -0.0002778200    0.0008799300
   0.0030109300    0.0000647600   -0.0003354500
   0.0049110900   -0.0010290700    0.0004485200
   0.0073534500    0.0001037200    0.0002535500
   0.0077755000    0.0101382600   -0.0010572300
   0.0000377100   -0.0015506800   -0.0000420100
  -0.0001342400   -0.0001207000    0.0010101300
  -0.0002169400    0.0020740100    0.0004526100
   0.0075354300    0.0015416800   -0.0143560500
   0.0175604400   -0.0226012800   -0.0043389700
   0.0174478100    0.0044443600    0.0226496000
  -0.0008337900   -0.0006296100   -0.0013334600
  -0.0013624700    0.0000973700   -0.0000081400
  -0.0033894100   -0.0001252200   -0.0002934300
  -0.0069766600    0.0001138500   -0.0002520200
  -0.0043026900    0.0002758800    0.0000158200
  -0.0058548500   -0.0014790400   -0.0012473400
  -0.0049489700    0.0008865700    0.0010373700
   0.0000223800    0.0004016400    0.0011973400
   0.0004979500   -0.0015440300   -0.0003205000
   0.0002922200   -0.0003958500   -0.0009934500
   0.0003172500    0.0013458600    0.0005951700
   0.0037242200    0.0005517100   -0.0003769500
   0.0013618200   -0.0000333200    0.0000399100

25
 -0.0100000000000000   0.0000000000000000   0.0000000000000000
   0.0115378600    0.0007750500   -0.0029099400
   0.0023274300   -0.0003810300    0.0002262400
   0.0103222200    0.0002675400    0.0002197200
   0.0025041600   -0.0000042600    0.0003136700
   0.0025314400   -0.0003706600    0.0000604700
   0.0060792500    0.0042158900    0.0027668100
   0.0055335200   -0.0032750300   -0.0041793400
  -0.0246906800    0.0027116000   -0.0014417200
  -0.0009100900    0.0044634500   -0.0029205500
  -0.0004812000    0.0002504800   -0.0001366100
  -0.0051397100    0.0019873800    0.0023289900
  -0.0059504200   -0.0030598200   -0.0023622100
  -0.0228679300    0.0013380100   -0.0012197600
  -0.0232429900    0.0003041600   -0.0012573400
  -0.0024114000   -0.0002602700   -0.0001951000
  -0.0421995300    0.0217556100   -0.0214992600
  -0.0010924000    0.0004644800   -0.0005138800
   0.0008240000   -0.0042231200   -0.0043709900
  -0.0001827600    0.0001674300    0.0002707600
   0.0012676300    0.0040868800    0.0056919900
   0.0033705200   -0.0000641000   -0.0000580100
   0.0000071500   -0.0019626900    0.0019130000
  -0.0009605300    0.0001304800    0.0000273700
  -0.0002196700    0.0003434600   -0.0000814000
   0.1737930600   -0.0318920600    0.0317681300
   0.0046736600    0.0009319800   -0.0009865900
  -0.0077826300    0.0009068800    0.0130276500
  -0.0130117900   -0.0155494300   -0.0016804400
  -0.0058453800   -0.0006720000   -0.0111344900
  -0.0098515300    0.0098370000    0.0010444800
  -0.0039756600   -0.0005908100    0.0006217600
  -0.0038731500   -0.0003746200    0.0002373500
  -0.0057479900    0.0002778000   -0.0008796400
  -0.0030162500   -0.0000627100    0.0003289200
  -0.0049113800    0.0010285800   -0.0004492900
  -0.0073720700   -0.0001000100   -0.0002611000
  -0.0078404300   -0.0102725700    0.0010632800
  -0.0000199500    0.0015599400    0.0000396800
   0.0001506400    0.0001225800   -0.0010141700
   0.0002217800   -0.0020874400   -0.0004504300
  -0.0075916100   -0.0015456000    0.0145183200
  -0.0177236300    0.0229046600    0.0043639700
  -0.0176175900   -0.0044667200   -0.0229553500
   0.0008440800    0.0006263100    0.0013416900
   0.0013708300   -0.0001140000    0.0000192100
   0.0033929500    0.0001159700    0.0002873200
   0.0069660300   -0.0002542200    0.0003878700
   0.0043034400   -0.0002639100   -0.0000036700
   0.0058468900    0.0015509800    0.0012920600
   0.0049408200   -0.0009314300   -0.0010831600
  -0.0000335400   -0.0004061000   -0.0011852400
  -0.0005020300    0.0015320600    0.0003248500
  -0.0003136400    0.0003835900    0.0009797000
  -0.0003387300   -0.0013294000   -0.0005823800
  -0.0037252200   -0.0005622600    0.0003888500
  -0.0013658600    0.0000360400   -0.0000420400

26
  0.0100000000000000   0.0000000000000000   0.0000000000000000
  -0.0023993800   -0.0006964000    0.0004673500
  -0.0117980800    0.0011445900   -0.0031305400
  -0.0120581600    0.0002154700   -0.0004695400
  -0.0025045300   -0.0000335500    0.0000666000
  -0.0031106600   -0.0003259300    0.0001050300
  -0.0046083300    0.0031447100    0.0026278400
  -0.0057124900   -0.0033864500   -0.0044854400
   0.0004670000    0.0043462200   -0.0045942200
   0.0347569600    0.0000441000   -0.0020986800
   0.0002796900   -0.0042695900    0.0061173600
   0.0058801800   -0.0025657500   -0.0031417000
   0.0061240900    0.0024018800    0.0026899800
   0.0025867300   -0.0000189700    0.0003898300
   0.0025184500   -0.0003394800   -0.0000324200
   0.0248040300   -0.0006289400   -0.0017683000
   0.0557907000    0.0343894600   -0.0319802600
   0.0020510300    0.0000823500   -0.0005685300
   0.0008535200    0.0007633900    0.0021323100
  -0.0012367700   -0.0033885300   -0.0050517900
   0.0000491000    0.0001924400    0.0006602300
  -0.0035741900    0.0001199900    0.0000578900
   0.0000823700   -0.0000310100    0.0000774500
   0.0071601600    0.0004028000    0.0000542300
  -0.0006617400    0.0019405600    0.0018341100
  -0.0046754000    0.0010326200   -0.0006670000
  -0.1818596900   -0.0406091500    0.0430174800
  -0.0001479900    0.0015616000   -0.0003319900
  -0.0000469300    0.0000131800   -0.0016200600
   0.0064576800    0.0128234300    0.0014991000
   0.0106924500    0.0003413000   -0.0128373800
   0.0057441700   -0.0000150900   -0.0010320900
   0.0059692200    0.0007685900   -0.0002203000
   0.0035009600   -0.0003496200    0.0003482500
   0.0012372000    0.0002636900   -0.0001319800
   0.0034254400   -0.0000842200    0.0008467900
   0.0043214500   -0.0005237200    0.0006735300
   0.0130033900   -0.0015085400    0.0143312900
   0.0000957700    0.0005296800   -0.0018400800
  -0.0000287000    0.0012600300   -0.0003881800
   0.0108654800   -0.0011210600   -0.0134836500
   0.0081706300   -0.0148456100    0.0006764900
  -0.0009765300    0.0001069200    0.0018116700
  -0.0008048400   -0.0013607100   -0.0000793200
   0.0175535000    0.0226447100   -0.0001732000
  -0.0059169000    0.0010721100   -0.0011518600
  -0.0056842800   -0.0005530900   -0.0006317900
  -0.0011269300    0.0002262000   -0.0001035300
  -0.0039822100    0.0006303100    0.0003977500
  -0.0033832200   -0.0002503300   -0.0001806400
  -0.0043057000   -0.0000940900    0.0002895600
   0.0090762000   -0.0157312300    0.0012577000
   0.0050015400    0.0005698300    0.0084124700
   0.0003039300   -0.0012725600   -0.0003925900
   0.0002943500    0.0002384900    0.0020882700
   0.0077640400    0.0003303700   -0.0000220400
   0.0037222200    0.0004026000   -0.0003214600

26
 -0.0100000000000000   0.0000000000000000   0.0000000000000000
   0.0023978300    0.0006780800   -0.0004735500
   0.0117842600   -0.0011047600    0.0031015900
   0.0120628800   -0.0002145900    0.0004744400
   0.0025048800    0.0000497000   -0.0000710500
   0.0031044400    0.0003309200   -0.0001109200
   0.0045959600   -0.0031676000   -0.0026220700
   0.0057121400    0.0033985800    0.0045055000
  -0.0004875700   -0.0043682000    0.0046021000
  -0.0393923200    0.0002826700    0.0024011900
  -0.0003228900    0.0042885600   -0.0061418100
  -0.0059513400    0.0026043900    0.0031147200
  -0.0061392800   -0.0023990400   -0.0027149900
  -0.0025825200    0.0000093400   -0.0003899300
  -0.0025163300    0.0003036300    0.0000534100
  -0.0249532600    0.0008997400    0.0017939600
  -0.0547738400   -0.0324972100    0.0303853000
  -0.0020053400   -0.0001010700    0.0005638700
  -0.0008230500   -0.0007507400   -0.0021242800
   0.0012559900    0.0033840700    0.0050407900
  -0.0000428900   -0.0002091500   -0.0006495200
   0.0035726600   -0.0001259000   -0.0000582400
  -0.0000887500    0.0000290700   -0.0000783200
  -0.0071878200   -0.0003952400   -0.0000663600
   0.0006770700   -0.0019313300   -0.0018310000
   0.0046780200   -0.0010696900    0.0006877100
   0.1860347500    0.0381216600   -0.0416332000
   0.0001376500   -0.0015486500    0.0003330700
   0.0000288800   -0.0000097600    0.0016086600
  -0.0064356100   -0.0127099200   -0.0014954400
  -0.0106489700   -0.0003286100    0.0126962000
  -0.0057439400    0.0000129400    0.0010249400
  -0.0059716500   -0.0007663600    0.0002216600
  -0.0035034600    0.0003524500   -0.0003412400
  -0.0012414500   -0.0002655900    0.0001325800
  -0.0034217600    0.0000762100   -0.0008495200
  -0.0043265200    0.0005331100   -0.0006799500
  -0.0131116600    0.0015207800   -0.0145439800
  -0.0000778800   -0.0005269600    0.0018457400
   0.0000472100   -0.0012654200    0.0003951900
  -0.0109614500    0.0011152600    0.0136412700
  -0.0082297200    0.0150080400   -0.0006815600
   0.0009975200   -0.0000982900   -0.0018190300
   0.0008160800    0.0013691200    0.0000811900
  -0.0177307900   -0.0229605200    0.0001935500
   0.0059364600   -0.0010114900    0.0010836700
   0.0056901300    0.0006747000    0.0007265800
   0.0011276100   -0.0002155900    0.0001053000
   0.0039811300   -0.0006450900   -0.0004167000
   0.0033762500    0.0002432500    0.0001828300
   0.0043003200    0.0001089300   -0.0002907300
  -0.0090354700    0.0155766800   -0.0012460200
  -0.0049786600   -0.0005704900   -0.0083277100
  -0.0003207400    0.0012595700    0.0003849600
  -0.0003118900   -0.0002273400   -0.0020727200
  -0.0077735300   -0.0003422000    0.0000243700
  -0.0037277500   -0.0004046200    0.0003235200

26
  0.0000000000000000   0.0100000000000000   0.0000000000000000
  -0.0003958300   -0.0019985100    0.0005673000
   0.0022272900    0.0053163800    0.0022523900
  -0.0004251200    0.0024521500   -0.0003463100
  -0.0002967800    0.0001282700    0.0003000100
  -0.0003704500   -0.0027000600    0.0002516400
   0.0001617900    0.0018414300   -0.0000226200
  -0.0034738500   -0.0057074300   -0.0047239600
   0.0047534700   -0.0015633500    0.0058639900
  -0.0007431500    0.0249309200   -0.0017705500
  -0.0046082500   -0.0000623400    0.0059435900
  -0.0027826200    0.0067232500   -0.0029881200
   0.0003176700   -0.0116908600   -0.0038217700
   0.0000297000    0.0004303100    0.0016813800
   0.0001670500   -0.0116032600   -0.0001832300
  -0.0015239400    0.0629564400   -0.0018738800
   0.0365612300    0.0576355700   -0.0339605500
   0.0036887200   -0.0044541800    0.0025706100
   0.0002238400    0.0023163400    0.0007829900
  -0.0034622700   -0.0007408000   -0.0054296600
   0.0001916400   -0.0110530300   -0.0001663000
   0.0003127200    0.0002254500   -0.0000889200
  -0.0001187500   -0.0009277200    0.0001383700
   0.0004334000    0.0071367900    0.0002404800
   0.0016338400    0.0002093000   -0.0013632100
  -0.0009270400    0.0099019900   -0.0112456300
  -0.0405834800   -0.2166491700    0.0443964400
   0.0010171800    0.0000229700   -0.0000622300
  -0.0003874200    0.0035304900    0.0001037100
   0.0106404700    0.0106967600    0.0017342900
   0.0017109300   -0.0038176500   -0.0014898200
   0.0002831600   -0.0013638700   -0.0004477300
   0.0009236400    0.0050982500   -0.0001037100
   0.0003550800    0.0002441300    0.0011405700
   0.0002467900    0.0013076700   -0.0002643400
   0.0005708600   -0.0008005400    0.0013413200
  -0.0004407800    0.0000751100   -0.0012770900
  -0.0016291800   -0.0058594500   -0.0014959900
   0.0004415300    0.0043228800   -0.0000873100
   0.0016091000   -0.0004988000   -0.0001077100
   0.0009695800   -0.0059198600   -0.0010466200
  -0.0167864900    0.0137196200   -0.0006170600
  -0.0001066500    0.0049997700    0.0002116400
  -0.0013520200   -0.0002734700   -0.0008495000
   0.0225973800    0.0174464400   -0.0003097400
  -0.0010115000    0.0107538600   -0.0134848000
   0.0004513700    0.0136283400    0.0148251200
   0.0002178900    0.0059674500   -0.0009251500
   0.0004072800    0.0047026800    0.0077405700
  -0.0002927900   -0.0033801300   -0.0001862500