99
44

1
  0.0100000000000000   0.0000000000000000   0.0000000000000000
  -0.0801728300   -0.0000305700   -0.0007803700
  -0.0012321800    0.0000149200   -0.0007569100
  -0.0012357100    0.0000123700   -0.0007603600
   0.0024098300   -0.0024040400    0.0003015900
   0.0003066500   -0.0000122100    0.0004021800
   0.0023576700    0.0023312700    0.0005553200
   0.0039615600    0.0007361200   -0.0007644900
   0.0005402000   -0.0002273400   -0.0007535700
   0.0005308400   -0.0002021500   -0.0007676000
   0.0049168900    0.0138483700    0.0014532500
   0.0002849100    0.0004472200    0.0000610300
  -0.0003435100    0.0020165900    0.0015680400
   0.0037627000   -0.0100054800   -0.0027814800
  -0.0011728100   -0.0022105000    0.0021845000
  -0.0000804800   -0.0003146900   -0.0000021500
   0.0272025900    0.0001480800   -0.0011354400
   0.0002204200    0.0005151700    0.0016491800
   0.0023234700    0.0005081300   -0.0012635300
   0.0043220100    0.0103550400   -0.0030161100
  -0.0012339000    0.0024078200    0.0025809200
  -0.0001764500    0.0003945800   -0.0000301200
   0.0215444400   -0.0004007300    0.0074168200
   0.0027628400    0.0000741300   -0.0029502200
   0.0004511600    0.0000637600    0.0018282400
   0.0032877000   -0.0136669800    0.0015103400
  -0.0005122100   -0.0008939700    0.0001215900
  -0.0011506500   -0.0025004800    0.0014076500
  -0.0043620800    0.0000355400    0.0028650600
  -0.0010618800   -0.0000818600    0.0010135900
  -0.0005946600   -0.0007090900    0.0004258500
   0.0014140700   -0.0010829100   -0.0032166500
   0.0007811200   -0.0001741800    0.0000215800
   0.0007623800   -0.0000753500   -0.0010176000
   0.0043009200    0.0011037700   -0.0070227300
   0.0002928200    0.0004107500   -0.0001015900
   0.0004570500   -0.0004145000   -0.0006308300
   0.0011099000    0.0011323700   -0.0022736300
   0.0006910700    0.0000552000   -0.0009601100
   0.0008663700    0.0001113900    0.0018238400
   0.0048174500   -0.0014250300   -0.0030196900
   0.0008675000   -0.0000808400   -0.0003039500
   0.0003975600   -0.0001219600    0.0002306100
  -0.0037392400    0.0000920600   -0.0002208700
  -0.0003071300    0.0005287100   -0.0000351500
  -0.0002679400    0.0000653900    0.0002745300
   0.0057171800   -0.0001075500    0.0056284900
   0.0002662200   -0.0001148300    0.0005148500
  -0.0001844900   -0.0001154700   -0.0003891800
   0.0061737700   -0.0002494500    0.0137404600
   0.0000459000   -0.0001250300   -0.0001416000
  -0.0012496000   -0.0000872200    0.0010059900
  -0.0039329600    0.0060527200   -0.0026126200
   0.0000154800   -0.0002449500    0.0007619900
  -0.0006635300   -0.0003816600    0.0009227400
  -0.0015738400    0.0008121700    0.0041938200
  -0.0006324800    0.0006574100   -0.0023310000
  -0.0004737900    0.0006481800   -0.0005551300
   0.0044568300   -0.0009966000   -0.0065135500
   0.0005107800   -0.0002783600   -0.0000923300
   0.0007344100    0.0005971200   -0.0006117700
   0.0045502000    0.0015687200   -0.0031191700
   0.0006364300    0.0002426100   -0.0002567400
   0.0001555400    0.0002539500    0.0002503200
  -0.0042130600   -0.0067199800    0.0013247100
  -0.0012333000   -0.0010488800    0.0001762300
  -0.0001899500   -0.0001397000   -0.0000749000
  -0.0039964300   -0.0068633100   -0.0012465800
  -0.0001743000   -0.0002976900   -0.0001304600
  -0.0006783600   -0.0002061900    0.0000642100
   0.0000506300   -0.0006129700   -0.0026689600
  -0.0003003900    0.0005137900   -0.0009624900
  -0.0002961800    0.0006096100    0.0019733700
  -0.0038378100   -0.0003827000   -0.0015445000
  -0.0006510600   -0.0001767000   -0.0002172600
  -0.0003294000    0.0000657200    0.0002055200
   0.0022030900   -0.0042181200   -0.0004690700
   0.0008788600   -0.0015475000    0.0002905200
   0.0002130300   -0.0004293000    0.0002502400
  -0.0019132300   -0.0005433000    0.0022207000
  -0.0003936600   -0.0005650000   -0.0009651900
  -0.0002816300   -0.0003845700   -0.0066810800
  -0.0047989200    0.0063190800    0.0036483200
  -0.0010721200    0.0008928700    0.0004957100
  -0.0002270100   -0.0000552800   -0.0002118200
   0.0024940900   -0.0048492000    0.0001028900
   0.0002808400   -0.0007767200   -0.0001084400
   0.0005323800   -0.0012863500    0.0001250900
  -0.0033872300    0.0001839800    0.0007685700
  -0.0004880600    0.0002375000   -0.0000956000
  -0.0001060900    0.0007191800   -0.0004243400
   0.0022271700    0.0042534400   -0.0020240600
   0.0007865900    0.0011784300   -0.0003249000
   0.0003492500    0.0004071500    0.0000902100
   0.0004532900    0.0004961300   -0.0032228000
  -0.0003155300   -0.0004565700   -0.0000660300
  -0.0003403600   -0.0005714900   -0.0009614300
   0.0023476500    0.0048946000    0.0026321900
   0.0006075500    0.0011043600    0.0010853000
   0.0009472200    0.0017500800    0.0014199700

1
 -0.0100000000000000   0.0000000000000000   0.0000000000000000
   0.0800491300   -0.0000300100   -0.0007613300
   0.0011984700   -0.0000066400   -0.0007533700
   0.0012058700    0.0000264000   -0.0007657500
  -0.0024011700    0.0024041100    0.0002860600
  -0.0003085000    0.0000043100    0.0003996600
  -0.0023509300   -0.0023659200    0.0005485600
  -0.0039344700   -0.0007200900   -0.0007883600
  -0.0005122800    0.0001996200   -0.0007437600
  -0.0005201900    0.0002320900   -0.0007706900
  -0.0037495400   -0.0138882200   -0.0002861800
   0.0008335700   -0.0004369500    0.0011188900
   0.0014703300   -0.0020271800   -0.0004387400
  -0.0036927400    0.0100116300    0.0038673700
   0.0012254200    0.0021972500   -0.0009752100
   0.0001304000    0.0003164600    0.0011773200
  -0.0275569500    0.0008308200    0.0023815900
  -0.0007607800    0.0004527400   -0.0004538200
  -0.0029040000    0.0004654400    0.0023941500
  -0.0043680600   -0.0102752200    0.0040684500
   0.0011806900   -0.0023448200   -0.0013668200
   0.0001475800   -0.0003499200    0.0012027100
  -0.0217303400    0.0003286200   -0.0064532700
  -0.0027773000   -0.0001351000    0.0042010000
  -0.0004668700   -0.0001046200   -0.0006676400
  -0.0038207600    0.0127080900   -0.0003327000
  -0.0000458100   -0.0000742300    0.0010743000
   0.0006082300    0.0015402900   -0.0002735900
   0.0026651500   -0.0000283100   -0.0009529200
  -0.0006112300    0.0000898700    0.0008722700
  -0.0010977300    0.0007066600    0.0013973500
   0.0000706700    0.0011028300    0.0017309400
   0.0006962300    0.0001810000   -0.0015781200
   0.0007175500    0.0000754600   -0.0006035500
  -0.0043403000   -0.0007280800    0.0069449800
  -0.0002022300    0.0002630900   -0.0001164600
  -0.0003902500    0.0010816000    0.0004850300
   0.0002253700   -0.0011222200    0.0005207000
   0.0006209500   -0.0000573200   -0.0009687000
   0.0004743900   -0.0001047000   -0.0037275200
  -0.0042324600    0.0008525200    0.0028658800
  -0.0003674500   -0.0002525400    0.0002523600
   0.0001023700   -0.0002225400   -0.0002029900
   0.0032997700   -0.0000852000    0.0006395200
  -0.0001200900   -0.0005251700    0.0003345200
  -0.0001156000   -0.0000709100    0.0000352400
  -0.0074078100   -0.0001578700   -0.0064714500
  -0.0008093300   -0.0001430400   -0.0005499000
  -0.0003679700   -0.0001402200    0.0004158200
  -0.0054821700   -0.0000716600   -0.0131306800
  -0.0006386500   -0.0001206100   -0.0000829500
   0.0006176100   -0.0001918600   -0.0011430200
   0.0047512300   -0.0074675300    0.0044970200
   0.0008011500   -0.0011516800    0.0010946900
   0.0015196800   -0.0010986200    0.0009148800
   0.0008056900    0.0004821700   -0.0056316000
  -0.0000958900    0.0006321900    0.0008034600
  -0.0002689100    0.0006499300   -0.0011014300
  -0.0039954100    0.0008933000    0.0064039800
   0.0000113600   -0.0001322200   -0.0001295300
  -0.0001898700   -0.0009652000    0.0004611600
  -0.0044585200   -0.0007236700    0.0029561700
  -0.0006176500    0.0003270100    0.0002365100
  -0.0001084700    0.0003568000   -0.0002091900
   0.0044271900    0.0070915200   -0.0009009100
   0.0014424600    0.0014146300    0.0001359500
   0.0003800900    0.0004571400    0.0003880800
   0.0044983100    0.0071446400    0.0009972200
   0.0006905500    0.0006855800   -0.0000968400
   0.0012516800    0.0006512300   -0.0002018800
  -0.0007151500    0.0017546100    0.0009771400
  -0.0003593500    0.0006219000   -0.0009211000
  -0.0003750700    0.0005571900   -0.0038818700
   0.0033092100    0.0006536300    0.0015523200
   0.0001431200    0.0004343200    0.0001935700
  -0.0001924900    0.0001957300   -0.0001583700
  -0.0020105100    0.0038745000    0.0008823600
  -0.0006773800    0.0012001500    0.0000295000
  -0.0000233200    0.0000956600    0.0000671700
   0.0012634500   -0.0006115600   -0.0039231700
  -0.0002616100   -0.0005628400   -0.0009689700
  -0.0003831000   -0.0007862300    0.0048479500
   0.0048324700   -0.0069335700   -0.0036304600
   0.0011117900   -0.0014930300   -0.0005322900
   0.0002569600   -0.0005126800    0.0002501300
  -0.0024591600    0.0042392600   -0.0003381300
  -0.0001811200    0.0001025000   -0.0001025000
  -0.0004511200    0.0005882900   -0.0002671400
   0.0028201400    0.0000958000   -0.0010032400
  -0.0001314200    0.0000098200   -0.0001180900
  -0.0005376100   -0.0004370000    0.0002818000
  -0.0017025200   -0.0039061700    0.0020308100
  -0.0002763200   -0.0008275700    0.0002679400
   0.0001374000   -0.0000899200   -0.0000438900
  -0.0011986100   -0.0017988600    0.0017329800
  -0.0004250000   -0.0008425700   -0.0014689000
  -0.0003996800   -0.0007172800   -0.0006870900
  -0.0015220000   -0.0034502200   -0.0007310900
   0.0002131600    0.0003090800    0.0007916700
  -0.0001056600   -0.0002998800    0.0003980500

1
  0.0000000000000000   0.0000000000000000   0.0100000000000000
   0.0000000000    0.0000000000   -0.0607934800
   0.0000000000    0.0000000000    0.0017453200
   0.0000000000    0.0000000000    0.0017889500
   0.0000000000    0.0000000000    0.0009863100
   0.0000000000    0.0000000000    0.0021515800
   0.0000000000    0.0000000000    0.0012457500
   0.0000000000    0.0000000000   -0.0068760000
   0.0000000000    0.0000000000    0.0007162200
   0.0000000000    0.0000000000    0.0007165300
  -0.0037946000   -0.0084304300   -0.0075017900
   0.0003126200   -0.0000971500    0.0033618400
   0.0012222900    0.0011253200    0.0016969900
  -0.0053023300    0.0097246800    0.0020537300
   0.0009093300   -0.0019564100    0.0027099300
  -0.0002123700    0.0001121300    0.0035715100
   0.0091982600    0.0009290000   -0.0075017900
  -0.0000721800    0.0003193100    0.0033618400
  -0.0015857000    0.0004958800    0.0016969900
  -0.0057706600   -0.0094542900    0.0020537300
   0.0012396400    0.0017657100    0.0027099300
   0.0000090700   -0.0002399900    0.0035715100
   0.0110729900   -0.0002703900    0.0020537300
  -0.0021489700    0.0001907000    0.0027099300
   0.0002033000    0.0001278500    0.0035715100
  -0.0054036700    0.0075014300   -0.0075017900
  -0.0002404400   -0.0002221700    0.0033618400
   0.0003634100   -0.0016212000    0.0016969900
   0.0016977000   -0.0002439800   -0.0002005200
  -0.0001105200   -0.0000002500    0.0001241800
  -0.0004639100    0.0000537000    0.0008725200
   0.0005603500   -0.0006789800    0.0067202600
   0.0007421800    0.0000635600   -0.0023407600
   0.0006875700   -0.0000187800   -0.0023700100
  -0.0013036500   -0.0017647200    0.0119511500
  -0.0000465800    0.0002056100   -0.0006933600
  -0.0008937200   -0.0011791000   -0.0009393100
   0.0004082700    0.0003792900   -0.0007603000
   0.0006059400    0.0000081500   -0.0026874600
   0.0002918300    0.0005040500   -0.0039714700
  -0.0011757700    0.0024091000    0.0077805900
  -0.0003714900    0.0009370200   -0.0008093000
   0.0005763000   -0.0007776700   -0.0008124000
   0.0039588200    0.0002411700    0.0017116900
  -0.0004069000    0.0000187100   -0.0003414800
  -0.0002757500    0.0000103000   -0.0003729700
   0.0026742300   -0.0001863000    0.0077805900
   0.0009972300   -0.0001467900   -0.0008093000
  -0.0009616300   -0.0001102500   -0.0008124000
   0.0021801200   -0.0002466400    0.0119511500
  -0.0001547800   -0.0001431500   -0.0006933600
   0.0014679900   -0.0001844300   -0.0009393100
  -0.0006375500    0.0015922400   -0.0002005200
   0.0000554800   -0.0000955900    0.0001241800
   0.0001854500   -0.0004286100    0.0008725200
   0.0003078400    0.0008247600    0.0067202600
  -0.0004261300    0.0006109700   -0.0023407600
  -0.0003275200    0.0006048500   -0.0023700100
  -0.0008764700    0.0020113600    0.0119511500
   0.0002013600   -0.0000624700   -0.0006933600
  -0.0005742800    0.0013635300   -0.0009393100
  -0.0014984600   -0.0022228000    0.0077805900
  -0.0006257400   -0.0007902300   -0.0008093000
   0.0003853300    0.0008879200   -0.0008124000
  -0.0017705500   -0.0035490300    0.0017116900
   0.0002196500    0.0003430300   -0.0003414800
   0.0001468000    0.0002336500   -0.0003729700
  -0.0012011200   -0.0034438200   -0.0001989500
   0.0001544000   -0.0000172900   -0.0006653000
   0.0001955200    0.0001805600   -0.0001628400
  -0.0005326100    0.0001639300   -0.0007603000
  -0.0003100300    0.0005206800   -0.0026874600
  -0.0005824300    0.0000007100   -0.0039714700
   0.0044283700    0.0002411800    0.0031439900
  -0.0008728100    0.0001047400   -0.0007348300
  -0.0008139700    0.0001035300   -0.0006957300
  -0.0021882700    0.0033078600    0.0017116900
   0.0001872500   -0.0003617400   -0.0003414800
   0.0001289500   -0.0002439500   -0.0003729700
   0.0001243400   -0.0005432200   -0.0007603000
  -0.0002959100   -0.0005288400   -0.0026874600
   0.0002906000   -0.0005047600   -0.0039714700
  -0.0024230500    0.0037144900    0.0031439900
   0.0003457000   -0.0008082500   -0.0007348300
   0.0003173200   -0.0007566800   -0.0006957300
  -0.0023818700    0.0027621100   -0.0001989500
  -0.0000921800   -0.0001250700   -0.0006653000
   0.0000586100   -0.0002596000   -0.0001628400
   0.0035830000    0.0006817000   -0.0001989500
  -0.0000622200    0.0001423600   -0.0006653000
  -0.0002541300    0.0000790500   -0.0001628400
  -0.0020053100   -0.0039556700    0.0031439900
   0.0005271200    0.0007035100   -0.0007348300
   0.0004966500    0.0006531500   -0.0006957300
  -0.0008681800   -0.0001457900    0.0067202600
  -0.0003160500   -0.0006745300   -0.0023407600
  -0.0003600500   -0.0005860700   -0.0023700100
  -0.0010601400   -0.0013482600   -0.0002005200
   0.0000550500    0.0000958400    0.0001241800
   0.0002784600    0.0003749100    0.0008725200

1
  0.0000000000000000   0.0000000000000000  -0.0100000000000000
   0.0000000000    0.0000000000    0.0593784900
   0.0000000000    0.0000000000   -0.0032940000
   0.0000000000    0.0000000000   -0.0033114300
   0.0000000000    0.0000000000   -0.0004773300
   0.0000000000    0.0000000000   -0.0013408600
   0.0000000000    0.0000000000   -0.0001441100
   0.0000000000    0.0000000000    0.0053683600
   0.0000000000    0.0000000000   -0.0022352000
   0.0000000000    0.0000000000   -0.0022584300
   0.0049426800    0.0084587700    0.0087553500
   0.0007831700    0.0001033000   -0.0020772800
  -0.0001168300   -0.0011059500   -0.0005159000
   0.0054158800   -0.0097375100   -0.0009153700
  -0.0008040900    0.0019365400   -0.0014613300
   0.0002829300   -0.0000889500   -0.0023243200
  -0.0097968500    0.0000511100    0.0087553500
  -0.0004810500    0.0006265900   -0.0020772800
   0.0010162000    0.0004518000   -0.0005159000
   0.0057249900    0.0095590400   -0.0009153700
  -0.0012750500   -0.0016646300   -0.0014613300
  -0.0000644300    0.0002895000   -0.0023243200
  -0.0111408700    0.0001784700   -0.0009153700
   0.0020791400   -0.0002719100   -0.0014613300
  -0.0002185000   -0.0002005500   -0.0023243200
   0.0048541700   -0.0085098800    0.0087553500
  -0.0003021200   -0.0007298900   -0.0020772800
  -0.0008993700    0.0006541600   -0.0005159000
  -0.0034125900    0.0002398700    0.0021030600
  -0.0016207200   -0.0000015000    0.0017704700
  -0.0012722300   -0.0000588000    0.0009482200
   0.0009426800    0.0006805600   -0.0082590900
   0.0007472500   -0.0000710700    0.0006848600
   0.0008088100    0.0000183300    0.0006747500
   0.0011057500    0.0020078800   -0.0120029500
   0.0001714400    0.0005154300    0.0004870200
   0.0009827700    0.0018914600    0.0007946000
   0.0009109300   -0.0003765600   -0.0011022900
   0.0007065600   -0.0000114900    0.0006672200
   0.0010574400   -0.0005048100    0.0020862500
   0.0019177600   -0.0031444700   -0.0079936900
   0.0008017000   -0.0011482300    0.0007823500
  -0.0001334500    0.0005258900    0.0008584900
  -0.0043748200   -0.0002389200   -0.0013011500
   0.0000591000   -0.0000200600    0.0006498000
  -0.0000152500   -0.0000080300    0.0006814700
  -0.0036820700   -0.0000885900   -0.0079936900
  -0.0013952500   -0.0001201700    0.0007823500
   0.0005221600   -0.0001473700    0.0008584900
  -0.0022917500   -0.0000463400   -0.0120029500
  -0.0005320900   -0.0001092400    0.0004870200
  -0.0021294400   -0.0000946300    0.0007946000
   0.0014985600   -0.0030753300    0.0021030600
   0.0008116600   -0.0014028300    0.0017704700
   0.0006870300   -0.0010723800    0.0009482200
  -0.0010607200    0.0004761100   -0.0082590900
  -0.0003120800    0.0006826700    0.0006848600
  -0.0004202800    0.0006912800    0.0006747500
   0.0011860000   -0.0019615400   -0.0120029500
   0.0003606500   -0.0004061900    0.0004870200
   0.0011466700   -0.0017968300    0.0007946000
   0.0017643100    0.0032330600   -0.0079936900
   0.0005935500    0.0012684100    0.0007823500
  -0.0003887100   -0.0003785100    0.0008584900
   0.0019805000    0.0039081600   -0.0013011500
  -0.0000469200   -0.0000411500    0.0006498000
   0.0000006700    0.0000172200    0.0006814700
   0.0017450700    0.0038156300   -0.0000531200
   0.0004163000    0.0004988700    0.0004509800
   0.0003983900    0.0002776100    0.0000185200
  -0.0001293600    0.0009771600   -0.0011022900
  -0.0003433300    0.0006176500    0.0006672200
  -0.0000915400    0.0011681800    0.0020862500
  -0.0049000600    0.0000330000   -0.0031168900
   0.0004662900    0.0001626900    0.0007221100
   0.0004153700    0.0001510200    0.0007593300
   0.0023943200   -0.0036692400   -0.0013011500
  -0.0000121800    0.0000612100    0.0006498000
   0.0000145800   -0.0000091900    0.0006814700
  -0.0007815700   -0.0006006100   -0.0011022900
  -0.0003632300   -0.0006061600    0.0006672200
  -0.0009659000   -0.0006633700    0.0020862500
   0.0024214500   -0.0042600800   -0.0031168900
  -0.0003740400    0.0003224800    0.0007221100
  -0.0003384700    0.0002842200    0.0007593300
   0.0024319000   -0.0034190900   -0.0000531200
   0.0002238800   -0.0006099600    0.0004509800
   0.0000412200   -0.0004838200    0.0000185200
  -0.0041769700   -0.0003965400   -0.0000531200
  -0.0006401800    0.0001111000    0.0004509800
  -0.0004396100    0.0002062100    0.0000185200
   0.0024786100    0.0042270800   -0.0031168900
  -0.0000922500   -0.0004851700    0.0007221100
  -0.0000769000   -0.0004352300    0.0007593300
   0.0001180400   -0.0011566700   -0.0082590900
  -0.0004351700   -0.0006116000    0.0006848600
  -0.0003885300   -0.0007096100    0.0006747500
   0.0019140300    0.0028354600    0.0021030600
   0.0008090600    0.0014043400    0.0017704700
   0.0005851900    0.0011311800    0.0009482200

4
  0.0100000000000000   0.0000000000000000   0.0000000000000000
   0.0024050700    0.0024148000   -0.0007682000
   0.0023361500   -0.0023323600   -0.0007736400
   0.0002874400    0.0000172100   -0.0007880200
  -0.0760615800    0.0000000000    0.0003952600
  -0.0012645700    0.0000000000    0.0003902800
  -0.0012612500    0.0000000000    0.0005187400
   0.0024050700   -0.0024148000   -0.0007682000
   0.0023361500    0.0023323600   -0.0007736400
   0.0002874400   -0.0000172100   -0.0007880200
   0.0215673300    0.0000000000   -0.0070502800
   0.0036296500    0.0000000000    0.0046997000
   0.0010460600    0.0000000000   -0.0006184500
   0.0027844400    0.0000000000    0.0023881400
   0.0264833000    0.0000000000    0.0016725000
   0.0004766800    0.0000000000   -0.0003486300
   0.0037932300   -0.0092378200    0.0044080600
  -0.0017654800   -0.0021768800   -0.0013716800
  -0.0004041800    0.0001202000    0.0012139500
  -0.0010563800   -0.0021627300   -0.0002895600
   0.0040445900   -0.0129662000    0.0001652100
  -0.0002573900   -0.0003903100    0.0011438900
  -0.0010563800    0.0021627300   -0.0002895600
   0.0040445900    0.0129662000    0.0001652100
  -0.0002573900    0.0003903100    0.0011438900
   0.0037932300    0.0092378200    0.0044080600
  -0.0017654800    0.0021768800   -0.0013716800
  -0.0004041800   -0.0001202000    0.0012139500
   0.0067234200    0.0000000000   -0.0056239600
  -0.0001164000    0.0000000000    0.0002873000
  -0.0007073500    0.0000000000    0.0013352900
   0.0008878700    0.0000000000    0.0051099800
  -0.0009698700    0.0000000000   -0.0042662800
   0.0006713000    0.0000000000   -0.0008727500
  -0.0042639200   -0.0065073400   -0.0015292600
  -0.0014042700   -0.0009833400   -0.0001873200
  -0.0002509200    0.0000280400    0.0001795000
  -0.0005304300    0.0000000000   -0.0057864800
   0.0003776100    0.0000000000    0.0005183500
   0.0005551900    0.0000000000   -0.0011782700
  -0.0009030900    0.0001324600   -0.0000010100
  -0.0039060600    0.0065782000    0.0032807700
  -0.0001511000    0.0002950200    0.0001701800
  -0.0012611900    0.0000000000   -0.0007968100
   0.0028506300    0.0000000000   -0.0109443100
   0.0001203400    0.0000000000    0.0001757300
   0.0000367900   -0.0009432100    0.0004904600
  -0.0036707800   -0.0000540800   -0.0017970000
  -0.0004668800   -0.0002172500   -0.0000497900
  -0.0039046100   -0.0000947800    0.0005035600
  -0.0004250400    0.0004361400    0.0000763600
  -0.0003693500   -0.0000774100   -0.0002235300
   0.0049006100   -0.0019125100    0.0038780400
   0.0010935700   -0.0006109800    0.0012128900
   0.0005331900   -0.0006300900    0.0006440800
  -0.0002261400    0.0006412700   -0.0036495400
   0.0000772500    0.0018780800    0.0009630100
  -0.0003395000    0.0007037900   -0.0008299000
   0.0022280600   -0.0040450300    0.0006695000
   0.0010600600   -0.0016461300   -0.0002104800
   0.0003883200   -0.0004435200   -0.0001850300
   0.0006277400    0.0014751500   -0.0005603300
   0.0020835200    0.0044760400   -0.0016517400
   0.0002276900    0.0006931000   -0.0001359500
   0.0006149800   -0.0006225900    0.0007092100
   0.0039310000    0.0002733600    0.0059646800
   0.0003403200    0.0002347600    0.0001478100
   0.0022280600    0.0040450300    0.0006695000
   0.0010600600    0.0016461300   -0.0002104800
   0.0003883200    0.0004435200   -0.0001850300
   0.0003540200    0.0016650200    0.0015981100
  -0.0002855600    0.0007536700   -0.0016542200
  -0.0003135600    0.0006652300   -0.0007656200
   0.0000367900    0.0009432100    0.0004904600
  -0.0036707800    0.0000540800   -0.0017970000
  -0.0004668800    0.0002172500   -0.0000497900
   0.0006149800    0.0006225900    0.0007092100
   0.0039310000   -0.0002733600    0.0059646800
   0.0003403200   -0.0002347600    0.0001478100
   0.0003540200   -0.0016650200    0.0015981100
  -0.0002855600   -0.0007536700   -0.0016542200
  -0.0003135600   -0.0006652300   -0.0007656200
   0.0006277400   -0.0014751500   -0.0005603300
   0.0020835200   -0.0044760400   -0.0016517400
   0.0002276900   -0.0006931000   -0.0001359500
  -0.0042639200    0.0065073400   -0.0015292600
  -0.0014042700    0.0009833400   -0.0001873200
  -0.0002509200   -0.0000280400    0.0001795000
  -0.0039046100    0.0000947800    0.0005035600
  -0.0004250400   -0.0004361400    0.0000763600
  -0.0003693500    0.0000774100   -0.0002235300
  -0.0009030900   -0.0001324600   -0.0000010100
  -0.0039060600   -0.0065782000    0.0032807700
  -0.0001511000   -0.0002950200    0.0001701800
  -0.0002261400   -0.0006412700   -0.0036495400
   0.0000772500   -0.0018780800    0.0009630100
  -0.0003395000   -0.0007037900   -0.0008299000
   0.0049006100    0.0019125100    0.0038780400
   0.0010935700    0.0006109800    0.0012128900
   0.0005331900    0.0006300900    0.0006440800

4
 -0.0100000000000000   0.0000000000000000   0.0000000000000000
  -0.0023910100   -0.0023893100   -0.0007770900
  -0.0023605100    0.0023612100   -0.0007752200
  -0.0003226900   -0.0000059300   -0.0007666200
   0.0761106800    0.0000000000    0.0003656700
   0.0012771700    0.0000000000    0.0003843700
   0.0012905000    0.0000000000    0.0005455600
  -0.0023910100    0.0023893100   -0.0007770900
  -0.0023605100   -0.0023612100   -0.0007752200
  -0.0003226900    0.0000059300   -0.0007666200
  -0.0202962000    0.0000000000    0.0081668500
  -0.0025465900    0.0000000000   -0.0033638600
   0.0000647800    0.0000000000    0.0018124300
  -0.0027084000    0.0000000000   -0.0012158400
  -0.0266335100    0.0000000000   -0.0003030000
  -0.0004254400    0.0000000000    0.0016162900
  -0.0043519000    0.0102241600   -0.0031962800
   0.0012269900    0.0031182400    0.0026606800
  -0.0001429400    0.0008458600   -0.0000010100
   0.0010129900    0.0022169300    0.0014777400
  -0.0040988600    0.0130017500    0.0011308600
   0.0002409700    0.0004217700    0.0001238300
   0.0010129900   -0.0022169300    0.0014777400
  -0.0040988600   -0.0130017500    0.0011308600
   0.0002409700   -0.0004217700    0.0001238300
  -0.0043519000   -0.0102241600   -0.0031962800
   0.0012269900   -0.0031182400    0.0026606800
  -0.0001429400   -0.0008458600   -0.0000010100
  -0.0070894200    0.0000000000    0.0065740200
  -0.0013769300    0.0000000000    0.0015199900
  -0.0008483600    0.0000000000    0.0004103100
   0.0005973600    0.0000000000   -0.0065028700
   0.0024335100    0.0000000000    0.0026129300
   0.0008134400    0.0000000000   -0.0007887400
   0.0042197800    0.0070080500    0.0012805000
   0.0014583600    0.0015721200   -0.0000312400
   0.0002677500    0.0005708400   -0.0003361300
   0.0018789300    0.0000000000    0.0040084100
   0.0009290700    0.0000000000   -0.0024387000
   0.0007925100    0.0000000000   -0.0005314000
   0.0015009100   -0.0006141600   -0.0000462700
   0.0044521300   -0.0070092800   -0.0033932200
   0.0006628800   -0.0006849800   -0.0001854200
   0.0006637400    0.0000000000    0.0012188300
  -0.0045255400    0.0000000000    0.0120412900
  -0.0005818700    0.0000000000    0.0001222600
  -0.0007139400    0.0006618300   -0.0005362700
   0.0030570600   -0.0002151600    0.0016928100
  -0.0001258400   -0.0000435900    0.0000525600
   0.0034289100   -0.0001995000   -0.0007492500
  -0.0000880600   -0.0006967100   -0.0003096900
  -0.0001775400   -0.0002024900    0.0000754400
  -0.0042086900    0.0008353500   -0.0022238100
  -0.0003487500   -0.0006755200    0.0005846200
   0.0002547700   -0.0007142900    0.0011245200
  -0.0005146700    0.0006462700    0.0022004600
  -0.0008125600   -0.0005970700   -0.0024766000
  -0.0004012800    0.0005889300   -0.0008546000
  -0.0017389600    0.0037843300   -0.0009139400
  -0.0005861200    0.0013340400   -0.0000195600
   0.0001368300    0.0001041700    0.0000363600
  -0.0005248500   -0.0007365400    0.0005105300
  -0.0019969700   -0.0038009700    0.0015520000
  -0.0001493300   -0.0000419000    0.0001312700
  -0.0003269600    0.0011170000   -0.0003028800
  -0.0035961500    0.0004058400   -0.0055245600
  -0.0001112200    0.0001436200    0.0001716100
  -0.0017389600   -0.0037843300   -0.0009139400
  -0.0005861200   -0.0013340400   -0.0000195600
   0.0001368300   -0.0001041700    0.0000363600
  -0.0010103000   -0.0005086200   -0.0033114500
  -0.0003738900    0.0003871000   -0.0001749300
  -0.0003560500    0.0005110200   -0.0010271600
  -0.0007139400   -0.0006618300   -0.0005362700
   0.0030570600    0.0002151600    0.0016928100
  -0.0001258400    0.0000435900    0.0000525600
  -0.0003269600   -0.0011170000   -0.0003028800
  -0.0035961500   -0.0004058400   -0.0055245600
  -0.0001112200   -0.0001436200    0.0001716100
  -0.0010103000    0.0005086200   -0.0033114500
  -0.0003738900   -0.0003871000   -0.0001749300
  -0.0003560500   -0.0005110200   -0.0010271600
  -0.0005248500    0.0007365400    0.0005105300
  -0.0019969700    0.0038009700    0.0015520000
  -0.0001493300    0.0000419000    0.0001312700
   0.0042197800   -0.0070080500    0.0012805000
   0.0014583600   -0.0015721200   -0.0000312400
   0.0002677500   -0.0005708400   -0.0003361300
   0.0034289100    0.0001995000   -0.0007492500
  -0.0000880600    0.0006967100   -0.0003096900
  -0.0001775400    0.0002024900    0.0000754400
   0.0015009100    0.0006141600   -0.0000462700
   0.0044521300    0.0070092800   -0.0033932200
   0.0006628800    0.0006849800   -0.0001854200
  -0.0005146700   -0.0006462700    0.0022004600
  -0.0008125600    0.0005970700   -0.0024766000
  -0.0004012800   -0.0005889300   -0.0008546000
  -0.0042086900   -0.0008353500   -0.0022238100
  -0.0003487500    0.0006755200    0.0005846200
   0.0002547700    0.0007142900    0.0011245200

4
  0.0000000000000000   0.0000000000000000   0.0100000000000000
   0.0000000000    0.0000000000   -0.0000411200
   0.0000000000    0.0000000000   -0.0000604500
   0.0000000000    0.0000000000    0.0009460500
   0.0000000000    0.0000000000   -0.0605386200
   0.0000000000    0.0000000000    0.0032036600
   0.0000000000    0.0000000000    0.0034373100
   0.0000000000    0.0000000000   -0.0000411200
   0.0000000000    0.0000000000   -0.0000604500
   0.0000000000    0.0000000000    0.0009460500
  -0.0105248800    0.0000000000    0.0024334200
   0.0027455700    0.0000000000    0.0028514400
   0.0002387600    0.0000000000    0.0037112900
   0.0013009000    0.0000000000    0.0017879500
  -0.0093836800    0.0000000000   -0.0072422400
  -0.0002796000    0.0000000000    0.0036413800
   0.0052624400   -0.0091148100    0.0024334200
  -0.0013727900    0.0023777300    0.0028514400
  -0.0001193800    0.0002067700    0.0037112900
  -0.0006504500    0.0011266200    0.0017879500
   0.0046918400   -0.0081265100   -0.0072422400
   0.0001398000   -0.0002421400    0.0036413800