54
34

1
  0.0100000000000000   0.0000000000000000   0.0000000000000000
  -0.0521824300   -0.0008969000    0.0000000000
  -0.0016253900    0.0003408000   -0.0002384400
  -0.0016253900    0.0003408000    0.0002384400
   0.0013729900    0.0007423100    0.0000000000
   0.0005166700    0.0002195900   -0.0002654400
   0.0005166700    0.0002195900    0.0002654400
   0.0013523700   -0.0007723100    0.0000000000
   0.0003904900   -0.0003143400   -0.0001016000
   0.0003904900   -0.0003143400    0.0001016000
   0.0092282100    0.0001027900   -0.0037853500
   0.0008117700    0.0000192400    0.0000000000
   0.0092282100    0.0001027900    0.0037853500
   0.0007125800    0.0103464000    0.0000000000
  -0.0003689000    0.0015747700    0.0002244700
  -0.0003689000    0.0015747700   -0.0002244700
   0.0013325700   -0.0057668100    0.0000000000
  -0.0003171000   -0.0009677900    0.0002768200
  -0.0003171000   -0.0009677900   -0.0002768200
   0.0060864800    0.0000513200   -0.0026182800
  -0.0000040200    0.0000313100    0.0000000000
   0.0060864800    0.0000513200    0.0026182800
  -0.0039296400    0.0010060400   -0.0000288200
  -0.0006267000    0.0001194200    0.0000000000
  -0.0039296400    0.0010060400    0.0000288200
  -0.0017501900   -0.0021487800    0.0008781700
  -0.0001452600   -0.0002748300    0.0000000000
  -0.0017501900   -0.0021487800   -0.0008781700
  -0.0004762400    0.0028611300    0.0000000000
  -0.0001568700    0.0007113900    0.0001986100
  -0.0001568700    0.0007113900   -0.0001986100
   0.0062976100   -0.0045807700    0.0000000000
   0.0002396000    0.0001188600   -0.0004505500
   0.0002396000    0.0001188600    0.0004505500
  -0.0009209400    0.0020499100    0.0000000000
   0.0000768800    0.0006004500   -0.0004262400
   0.0000768800    0.0006004500    0.0004262400
   0.0029888000   -0.0029111500    0.0000000000
   0.0006596100   -0.0003056500    0.0001403800
   0.0006596100   -0.0003056500   -0.0001403800
  -0.0020281100   -0.0033326200    0.0000000000
  -0.0000678100   -0.0003821300   -0.0001708000
  -0.0000678100   -0.0003821300    0.0001708000
   0.0172022600    0.0070635600    0.0000000000
   0.0002928900   -0.0008705200   -0.0012618600
   0.0002928900   -0.0008705200    0.0012618600
   0.0059956900   -0.0010565700    0.0046948800
   0.0007097300   -0.0002219300    0.0000000000
   0.0059956900   -0.0010565700   -0.0046948800
  -0.0017032800    0.0030604800    0.0002269400
  -0.0002797100    0.0004779200    0.0000000000
  -0.0017032800    0.0030604800   -0.0002269400
  -0.0014480500   -0.0039292100   -0.0001487500
  -0.0003558800   -0.0005769300    0.0000000000
  -0.0014480500   -0.0039292100    0.0001487500

1
 -0.0100000000000000   0.0000000000000000   0.0000000000000000
   0.0514879200    0.0001391000    0.0000000000
   0.0016497800   -0.0002512500    0.0002260800
   0.0016497800   -0.0002512500   -0.0002260800
  -0.0012652900   -0.0008223100    0.0000000000
  -0.0004065700   -0.0002963300    0.0002685600
  -0.0004065700   -0.0002963300   -0.0002685600
  -0.0013856900    0.0007419600    0.0000000000
  -0.0004170900    0.0002800800    0.0001023300
  -0.0004170900    0.0002800800   -0.0001023300
  -0.0092293500   -0.0000688400    0.0038714300
  -0.0007986600   -0.0000123700    0.0000000000
  -0.0092293500   -0.0000688400   -0.0038714300
  -0.0006725600   -0.0103153600    0.0000000000
   0.0003700400   -0.0015609000   -0.0002241800
   0.0003700400   -0.0015609000    0.0002241800
  -0.0014096000    0.0057428600    0.0000000000
   0.0002907400    0.0009755400   -0.0002772600
   0.0002907400    0.0009755400    0.0002772600
  -0.0062900700    0.0000022500    0.0029171900
  -0.0000051600   -0.0000480900    0.0000000000
  -0.0062900700    0.0000022500   -0.0029171900
   0.0039189700   -0.0009939600    0.0000165800
   0.0006346600   -0.0001076700    0.0000000000
   0.0039189700   -0.0009939600   -0.0000165800
   0.0017272900    0.0021601900   -0.0008988000
   0.0001224400    0.0002895800    0.0000000000
   0.0017272900    0.0021601900    0.0008988000
   0.0004409300   -0.0032764500    0.0000000000
   0.0001032000   -0.0011054000   -0.0001963200
   0.0001032000   -0.0011054000    0.0001963200
  -0.0066030300    0.0047276100    0.0000000000
  -0.0005354800    0.0000734700    0.0004564900
  -0.0005354800    0.0000734700   -0.0004564900
   0.0012550700   -0.0018624000    0.0000000000
   0.0002475200   -0.0004288800    0.0004218700
   0.0002475200   -0.0004288800   -0.0004218700
  -0.0030650400    0.0028641800    0.0000000000
  -0.0007511200    0.0002663500   -0.0001397700
  -0.0007511200    0.0002663500    0.0001397700
   0.0020059600    0.0034482400    0.0000000000
   0.0000491900    0.0004864000    0.0001711200
   0.0000491900    0.0004864000   -0.0001711200
  -0.0161414800   -0.0064121000    0.0000000000
  -0.0002199500    0.0008218500    0.0012577100
  -0.0002199500    0.0008218500   -0.0012577100
  -0.0059835900    0.0008921100   -0.0046535000
  -0.0007388400    0.0000561400    0.0000000000
  -0.0059835900    0.0008921100    0.0046535000
   0.0018909000   -0.0029873500   -0.0002391000
   0.0004429800   -0.0004133800    0.0000000000
   0.0018909000   -0.0029873500    0.0002391000
   0.0013234500    0.0040230600    0.0001424600
   0.0002196200    0.0006836600    0.0000000000
   0.0013234500    0.0040230600   -0.0001424600

1
 -0.0050000000033343   0.0086602540359193   0.0000000000000000
   0.0254131000   -0.0465017800    0.0000000000
   0.0010859600   -0.0008876900    0.0002558300
   0.0010859600   -0.0008876900   -0.0002558300
  -0.0005736900    0.0003645800    0.0000000000
  -0.0001453300    0.0000207400    0.0000565700
  -0.0001453300    0.0000207400   -0.0000565700
  -0.0007101400    0.0011044700    0.0000000000
  -0.0002782500    0.0003654100    0.0001034000
  -0.0002782500    0.0003654100   -0.0001034000
  -0.0067802700   -0.0026996000    0.0011836500
  -0.0006583600   -0.0003591800    0.0000000000
  -0.0067802700   -0.0026996000   -0.0011836500
   0.0063775000   -0.0003964400    0.0000000000
   0.0011518900   -0.0002909800    0.0000815500
   0.0011518900   -0.0002909800   -0.0000815500
  -0.0087808900    0.0091446500    0.0000000000
  -0.0010101500    0.0013159900   -0.0003311800
  -0.0010101500    0.0013159900    0.0003311800
  -0.0026879000    0.0044253200    0.0024436600
   0.0000548000    0.0001324000    0.0000000000
  -0.0026879000    0.0044253200   -0.0024436600
   0.0023903700   -0.0003103500   -0.0002282800
   0.0003405300    0.0000043200    0.0000000000
   0.0023903700   -0.0003103500    0.0002282800
   0.0007951600    0.0027907200    0.0004562400
   0.0000212800    0.0003511400    0.0000000000
   0.0007951600    0.0027907200   -0.0004562400
   0.0028745100   -0.0062621600    0.0000000000
   0.0004917400   -0.0012762500   -0.0001590700
   0.0004917400   -0.0012762500    0.0001590700
  -0.0080704300    0.0192454900    0.0000000000
   0.0002058300   -0.0000572700    0.0014297500
   0.0002058300   -0.0000572700   -0.0014297500
   0.0044992500    0.0002398700    0.0000000000
   0.0005718400   -0.0001019200    0.0003434800
   0.0005718400   -0.0001019200   -0.0003434800
  -0.0022112800   -0.0010874800    0.0000000000
  -0.0007555500   -0.0000663100   -0.0005100700
  -0.0007555500   -0.0000663100    0.0005100700
  -0.0022325900   -0.0012253700    0.0000000000
  -0.0006082600   -0.0003092200    0.0002991000
  -0.0006082600   -0.0003092200   -0.0002991000
  -0.0026569500    0.0050326000    0.0000000000
  -0.0003941700    0.0003532900   -0.0000223900
  -0.0003941700    0.0003532900    0.0000223900
  -0.0029927300   -0.0018769200   -0.0021161600
  -0.0003101800   -0.0005242800    0.0000000000
  -0.0029927300   -0.0018769200    0.0021161600
   0.0041672500    0.0024246700   -0.0039603500
   0.0008200500    0.0000455600    0.0000000000
   0.0041672500    0.0024246700    0.0039603500
  -0.0021496200    0.0062436600    0.0031281200
  -0.0003120900    0.0005650400    0.0000000000
  -0.0021496200    0.0062436600   -0.0031281200

1
  0.0050000000033343  -0.0086602540359193   0.0000000000000000
  -0.0255325400    0.0484676400    0.0000000000
  -0.0010627400    0.0009811400   -0.0002685900
  -0.0010627400    0.0009811400    0.0002685900
   0.0006898600   -0.0004357300    0.0000000000
   0.0002596700   -0.0000944700   -0.0000562800
   0.0002596700   -0.0000944700    0.0000562800
   0.0006713000   -0.0011488000    0.0000000000
   0.0002492800   -0.0004045900   -0.0001038500
   0.0002492800   -0.0004045900    0.0001038500
   0.0068145600    0.0027028700   -0.0011679800
   0.0006685200    0.0003637400    0.0000000000
   0.0068145600    0.0027028700    0.0011679800
  -0.0063391400    0.0003223200    0.0000000000
  -0.0011491800    0.0002850700   -0.0000822600
  -0.0011491800    0.0002850700    0.0000822600
   0.0087683900   -0.0092453100    0.0000000000
   0.0009970900   -0.0013066800    0.0003338800
   0.0009970900   -0.0013066800   -0.0003338800
   0.0025597200   -0.0044480300   -0.0022716000
  -0.0000630300   -0.0001508400    0.0000000000
   0.0025597200   -0.0044480300    0.0022716000
  -0.0023940800    0.0003270700    0.0002214700
  -0.0003317400    0.0000059400    0.0000000000
  -0.0023940800    0.0003270700   -0.0002214700
  -0.0008214800   -0.0027892200   -0.0004533000
  -0.0000430700   -0.0003403700    0.0000000000
  -0.0008214800   -0.0027892200    0.0004533000
  -0.0029085500    0.0058482300    0.0000000000
  -0.0005452300    0.0008796100    0.0001558000
  -0.0005452300    0.0008796100   -0.0001558000
   0.0082904200   -0.0206861500    0.0000000000
  -0.0005056200    0.0002458000   -0.0014359400
  -0.0005056200    0.0002458000    0.0014359400
  -0.0042111100   -0.0000848200    0.0000000000
  -0.0002557600    0.0002637200   -0.0003463600
  -0.0002557600    0.0002637200    0.0003463600
   0.0020856500    0.0010424900    0.0000000000
   0.0006563100    0.0000283700    0.0005063500
   0.0006563100    0.0000283700   -0.0005063500
   0.0022225100    0.0013613700    0.0000000000
   0.0005921800    0.0004168700   -0.0002989100
   0.0005921800    0.0004168700    0.0002989100
   0.0026555200   -0.0051494600    0.0000000000
   0.0004663200   -0.0003959400    0.0000297400
   0.0004663200   -0.0003959400   -0.0000297400
   0.0029618000    0.0017384100    0.0021210500
   0.0002795600    0.0003611000    0.0000000000
   0.0029618000    0.0017384100   -0.0021210500
  -0.0040311000   -0.0023666000    0.0039742300
  -0.0006642600    0.0000154400    0.0000000000
  -0.0040311000   -0.0023666000   -0.0039742300
   0.0020002100   -0.0061045200   -0.0030692100
   0.0001778400   -0.0004645200    0.0000000000
   0.0020002100   -0.0061045200    0.0030692100

1
  0.0000000000000000   0.0000000000000000   0.0100000000000000
   0.0006189600   -0.0001662100   -0.0394875300
   0.0002398300   -0.0001222300    0.0042057600
  -0.0002249200    0.0002163200    0.0041591600
   0.0000580600   -0.0000362700   -0.0013227700
  -0.0000516900   -0.0000965700    0.0006748300
   0.0001585300    0.0000208100    0.0006772500
  -0.0000161500   -0.0000175100   -0.0013229300
  -0.0002240900    0.0001661200    0.0006745000
   0.0001971600   -0.0002052200    0.0006774300
  -0.0090112400   -0.0025216900    0.0005427500
   0.0000024200    0.0000018500    0.0008890000
   0.0090181200    0.0025421000    0.0005133400
  -0.0000011600   -0.0000113700    0.0001924500
   0.0004718300    0.0009621400    0.0000216600
  -0.0004689700   -0.0009383400    0.0000239000
  -0.0000211600    0.0000163900    0.0007238900
   0.0008390700   -0.0002281000   -0.0001636800
  -0.0008412500    0.0002313600   -0.0001612400
  -0.0025510100    0.0013616300    0.0108538900
  -0.0000013900   -0.0000090000   -0.0021701400
   0.0020191600   -0.0012249300    0.0101801100
   0.0043433900   -0.0010973700    0.0006419600
   0.0000047000    0.0000056200   -0.0009743500
  -0.0043316800    0.0011109200    0.0006474900
   0.0021465500    0.0029565000    0.0003322200
  -0.0000096700    0.0000077800   -0.0009878100
  -0.0021621100   -0.0029401600    0.0003271600
  -0.0000200400   -0.0002098000    0.0009820900
  -0.0000581300   -0.0003658500   -0.0007787100
   0.0000004100   -0.0000248000   -0.0007827600
  -0.0001785600    0.0001526900    0.0056481000
  -0.0004936400    0.0011948600   -0.0013674500
   0.0001885300   -0.0009855900   -0.0013625400
   0.0001687500    0.0000813600    0.0011945700
  -0.0000507700    0.0000864700   -0.0005939600
   0.0003651700    0.0000802600   -0.0005969800
  -0.0000509100   -0.0000111600    0.0019608800
  -0.0002402300   -0.0004750100   -0.0008809100
   0.0001484400    0.0004311500   -0.0008835200
  -0.0000044100    0.0000608600    0.0002327800
  -0.0003730300   -0.0002315900   -0.0004000900
   0.0003525000    0.0003333300   -0.0004058300
  -0.0000117800   -0.0000490000    0.0059423700
  -0.0010016200   -0.0006256100   -0.0014670400
   0.0010585600    0.0005693800   -0.0014617900
   0.0019636500   -0.0004603600   -0.0004443900
  -0.0000117600   -0.0000847100    0.0021752300
  -0.0019786400    0.0002963600   -0.0004136900
  -0.0001354000   -0.0041082900   -0.0002476800
   0.0000769200    0.0000298500    0.0021520100
   0.0002915500    0.0041509800   -0.0002179500
  -0.0006523900    0.0060772700   -0.0003828500
  -0.0000680500    0.0000543900    0.0023925800
   0.0005135800   -0.0059520300   -0.0003607900

10
  0.0100000000000000   0.0000000000000000   0.0000000000000000
   0.0092902800   -0.0024697700   -0.0090694700
   0.0092902800   -0.0024697700    0.0090694700
   0.0008226200   -0.0002532400    0.0000000000
   0.0011435500    0.0045936800    0.0023169800
   0.0011435500    0.0045936800   -0.0023169800
   0.0000777100    0.0004016600    0.0000000000
  -0.0010611400   -0.0060296100    0.0066854700
  -0.0010611400   -0.0060296100   -0.0066854700
  -0.0002377700   -0.0006333500    0.0000000000
  -0.4682183700   -0.0072856900    0.0000000000
  -0.0084519500   -0.0000146700   -0.0000188700
  -0.0084519500   -0.0000146700    0.0000188700
   0.0068491700   -0.0010808700   -0.0000006400
   0.0068491700   -0.0010808700    0.0000006400
   0.0013867500   -0.0003877400    0.0000000000
   0.0051623400    0.0028402600    0.0000014700
   0.0051623400    0.0028402600   -0.0000014700
   0.0009765400    0.0007301400    0.0000000000
   0.2260676900    0.0565774300    0.0000000000
   0.0031655400    0.0004141700   -0.0049395700
   0.0031655400    0.0004141700    0.0049395700
   0.1542883600   -0.0874867700    0.0000000000
   0.0026229100   -0.0008645000    0.0038897600
   0.0026229100   -0.0008645000   -0.0038897600
   0.0629081000    0.0337506400    0.0000000000
   0.0017589100    0.0002515800    0.0010558000
   0.0017589100    0.0002515800   -0.0010558000
   0.0020739500   -0.0023904000    0.0010707900
   0.0020739500   -0.0023904000   -0.0010707900
   0.0002682700   -0.0005976800    0.0000000000
  -0.0020042300    0.0025002500    0.0007713000
  -0.0020042300    0.0025002500   -0.0007713000
  -0.0004725100    0.0002881300    0.0000000000
  -0.0036795100   -0.0032467900   -0.0018304700
  -0.0036795100   -0.0032467900    0.0018304700
  -0.0003684400   -0.0005566900    0.0000000000
  -0.0056980100   -0.0020498800    0.0031863600
  -0.0056980100   -0.0020498800   -0.0031863600
  -0.0009573500   -0.0000659800    0.0000000000
  -0.0035481700   -0.0000737200   -0.0029733700
  -0.0035481700   -0.0000737200    0.0029733700
  -0.0006218600    0.0000789100    0.0000000000
  -0.0062068900    0.0007222900   -0.0002316900
  -0.0062068900    0.0007222900    0.0002316900
  -0.0007888000    0.0002222000    0.0000000000
   0.0271108500    0.0046559600    0.0000000000
   0.0021175700    0.0000255100   -0.0019730300
   0.0021175700    0.0000255100    0.0019730300
  -0.0039928300   -0.0110584300    0.0000000000
  -0.0008367000   -0.0013957400   -0.0002586800
  -0.0008367000   -0.0013957400    0.0002586800
  -0.0020859100    0.0241171700    0.0000000000
  -0.0007791600    0.0020198800    0.0022370600
  -0.0007791600    0.0020198800   -0.0022370600

10
 -0.0100000000000000   0.0000000000000000   0.0000000000000000
  -0.0091774200    0.0025674700    0.0089605300
  -0.0091774200    0.0025674700   -0.0089605300
  -0.0007980200    0.0003440300    0.0000000000
  -0.0009790500   -0.0046667700   -0.0023121700
  -0.0009790500   -0.0046667700    0.0023121700
   0.0000369700   -0.0004738700    0.0000000000
   0.0010265400    0.0060137300   -0.0067142500
   0.0010265400    0.0060137300    0.0067142500
   0.0002072600    0.0005956800    0.0000000000
   0.4592661100   -0.0072858100    0.0000000000
   0.0084395500   -0.0000146000   -0.0000188200
   0.0084395500   -0.0000146000    0.0000188200
  -0.0068326400    0.0011211800   -0.0000006500
  -0.0068326400    0.0011211800    0.0000006500
  -0.0013824500    0.0004019200    0.0000000000
  -0.0051773200   -0.0028310800    0.0000014900
  -0.0051773200   -0.0028310800   -0.0000014900
  -0.0009917700   -0.0007187400    0.0000000000
  -0.2105010200   -0.0504304100    0.0000000000
  -0.0031530600   -0.0004270900    0.0049201400
  -0.0031530600   -0.0004270900   -0.0049201400
  -0.1612875400    0.0950945100    0.0000000000
  -0.0026183500    0.0008854500   -0.0038891600
  -0.0026183500    0.0008854500    0.0038891600
  -0.0624388300   -0.0330329700    0.0000000000
  -0.0017770600   -0.0002278000   -0.0010252700
  -0.0017770600   -0.0002278000    0.0010252700
  -0.0021374100    0.0019978300   -0.0010705100
  -0.0021374100    0.0019978300    0.0010705100
  -0.0003217400    0.0002013200    0.0000000000
   0.0017037600   -0.0022754000   -0.0007604000
   0.0017037600   -0.0022754000    0.0007604000
   0.0001744700   -0.0000944600    0.0000000000
   0.0040054100    0.0034183800    0.0018425100
   0.0040054100    0.0034183800   -0.0018425100
   0.0006841100    0.0007231000    0.0000000000
   0.0055948400    0.0019894000   -0.0032015000
   0.0055948400    0.0019894000    0.0032015000
   0.0008604100    0.0000228200    0.0000000000
   0.0035255200    0.0001624400    0.0029506100
   0.0035255200    0.0001624400   -0.0029506100
   0.0006045100    0.0000241600    0.0000000000
   0.0062707500   -0.0007939400    0.0002323500
   0.0062707500   -0.0007939400   -0.0002323500
   0.0008577900   -0.0002733000    0.0000000000
  -0.0274642400   -0.0048292100    0.0000000000
  -0.0021390100   -0.0001853300    0.0019838500
  -0.0021390100   -0.0001853300   -0.0019838500
   0.0040900400    0.0110225000    0.0000000000
   0.0009736000    0.0014568300    0.0002559000
   0.0009736000    0.0014568300   -0.0002559000
   0.0020051900   -0.0238462600    0.0000000000
   0.0006507300   -0.0019131900   -0.0022341700
   0.0006507300   -0.0019131900    0.0022341700

10
  0.0000000000000000   0.0000000000000000   0.0100000000000000
  -0.0037931200   -0.0008062300    0.0005364000
   0.0038627100    0.0008965600    0.0005179200
   0.0000130200    0.0000424200    0.0008883300
   0.0011983400    0.0036880500    0.0005364000
  -0.0011549100   -0.0037934800    0.0005179200
   0.0000302200   -0.0000324900    0.0008883300
   0.0025947700   -0.0028818200    0.0005364000
  -0.0027077900    0.0028969200    0.0005179200
  -0.0000432400   -0.0000099300    0.0008883300
   0.0000000000    0.0000000000   -0.1625072400
   0.0000000000    0.0000000000    0.0045650300
   0.0000000000    0.0000000000    0.0045289100
   0.0000000000    0.0000000000    0.0001053100
   0.0000000000    0.0000000000    0.0001050400
   0.0000000000    0.0000000000   -0.0000605600
   0.0000000000    0.0000000000    0.0001433600
   0.0000000000    0.0000000000    0.0001508000
   0.0000000000    0.0000000000   -0.0001627300
  -0.0006222000   -0.0002085300    0.0516749200
  -0.0009635700   -0.0007093400   -0.0016206200
   0.0009483700    0.0006762800   -0.0016100600
   0.0004916900   -0.0004345700    0.0516749200
   0.0010960900   -0.0004798100   -0.0016206200
  -0.0010598600    0.0004831700   -0.0016100600
   0.0001305100    0.0006431000    0.0516749200
  -0.0001325200    0.0011891500   -0.0016206200
   0.0001114900   -0.0011594500   -0.0016100600
   0.0001061300   -0.0000592600    0.0003106300
  -0.0001384500   -0.0003080000    0.0003340900
  -0.0000161700   -0.0001892700   -0.0003942600
  -0.0001043900   -0.0000622800    0.0003106300
  -0.0001975100    0.0002739000    0.0003340900
  -0.0001558200    0.0001086400   -0.0003942600
  -0.0000017400    0.0001215400    0.0003106300
   0.0003359600    0.0000341000    0.0003340900
   0.0001719900    0.0000806300   -0.0003942600
   0.0001108100   -0.0000001000    0.0005690100
  -0.0001939600   -0.0000447400    0.0006028900
  -0.0000415900   -0.0000238900   -0.0003217200
  -0.0000554900   -0.0000959100    0.0005690100
   0.0000582400    0.0001903500    0.0006028900
   0.0000001100    0.0000479600   -0.0003217200
  -0.0000553200    0.0000960200    0.0005690100
   0.0001357200   -0.0001456100    0.0006028900
   0.0000414800   -0.0000240700   -0.0003217200
   0.0000118800   -0.0000717600   -0.0007827300
  -0.0012008700   -0.0001350100    0.0001550400
   0.0011383300   -0.0000380700    0.0001841900
   0.0000562100    0.0000461700   -0.0007827300
   0.0007173600   -0.0009724900    0.0001550400
  -0.0005361900    0.0010048600    0.0001841900
  -0.0000680900    0.0000255900   -0.0007827300
   0.0004835200    0.0011074900    0.0001550400
  -0.0006021400   -0.0009667800    0.0001841900

13
  0.0100000000000000   0.0000000000000000   0.0000000000000000
   0.0007302900    0.0077613300    0.0000000000
  -0.0003442200    0.0011639500   -0.0004703000
  -0.0003442200    0.0011639500    0.0004703000
  -0.0034497000   -0.0079296300    0.0000000000
  -0.0007706100   -0.0013420400   -0.0005860000
  -0.0007706100   -0.0013420400    0.0005860000
   0.0122334500   -0.0037407100    0.0000000000
   0.0014905200   -0.0005096200    0.0010622500
   0.0014905200   -0.0005096200   -0.0010622500
   0.0068426900    0.0011073200   -0.0000031300
   0.0013879300    0.0003984700    0.0000000000
   0.0068426900    0.0011073200    0.0000031300
  -0.4666811900   -0.0086399000    0.0000000000
  -0.0112889200   -0.0000238500   -0.0000138900
  -0.0112889200   -0.0000238500    0.0000138900
   0.0117168400   -0.0066193400    0.0000000000
   0.0029414000   -0.0020359500   -0.0000012400
   0.0029414000   -0.0020359500    0.0000012400
  -0.0042906700   -0.0044368300    0.0012873300
  -0.0006567200   -0.0007909600    0.0000000000
  -0.0042906700   -0.0044368300   -0.0012873300
  -0.0029726100    0.0023191400   -0.0010535400
  -0.0005213300    0.0002838700    0.0000000000
  -0.0029726100    0.0023191400    0.0010535400
   0.0021840700   -0.0021865000   -0.0002485300
   0.0003186000   -0.0003499700    0.0000000000
   0.0021840700   -0.0021865000    0.0002485300
  -0.0110785300    0.0043831900    0.0000000000
  -0.0021397800    0.0009634000    0.0005868400
  -0.0021397800    0.0009634000   -0.0005868400
  -0.0129189400   -0.0027964900    0.0000000000
  -0.0020786800   -0.0000140600   -0.0009816100
  -0.0020786800   -0.0000140600    0.0009816100
  -0.0052411900   -0.0005790000    0.0000000000
  -0.0007514900    0.0007694400    0.0003995300
  -0.0007514900    0.0007694400   -0.0003995300
   0.1702775600   -0.0889545100    0.0000000000
   0.0052802800   -0.0009327800    0.0058727100
   0.0052802800   -0.0009327800   -0.0058727100
   0.2122116500    0.0706974300    0.0000000000
   0.0049458400    0.0027402000   -0.0068094000
   0.0049458400    0.0027402000    0.0068094000
   0.0522737800    0.0137848700    0.0000000000
   0.0020559000    0.0005354000    0.0009424500
   0.0020559000    0.0005354000   -0.0009424500
  -0.0013229800   -0.0055627500    0.0004616100
  -0.0002862900   -0.0006374400    0.0000000000
  -0.0013229800   -0.0055627500   -0.0004616100
   0.0013908200    0.0153715600    0.0137916300
  -0.0001039900    0.0017581300    0.0000000000
   0.0013908200    0.0153715600   -0.0137916300
   0.0178790800    0.0027738500   -0.0141602400
   0.0016864700    0.0005709000    0.0000000000
   0.0178790800    0.0027738500    0.0141602400

13
 -0.0100000000000000   0.0000000000000000   0.0000000000000000
  -0.0006698900   -0.0077240800    0.0000000000
   0.0003845600   -0.0010724700    0.0004710500
   0.0003845600   -0.0010724700   -0.0004710500
   0.0035270700    0.0079037900    0.0000000000
   0.0008751000    0.0012681800    0.0005894100
   0.0008751000    0.0012681800   -0.0005894100
  -0.0121021500    0.0036835700    0.0000000000
  -0.0015182500    0.0004725600   -0.0010539500
  -0.0015182500    0.0004725600    0.0010539500
  -0.0068386900   -0.0010948900   -0.0000031300
  -0.0013814500   -0.0003908600    0.0000000000
  -0.0068386900   -0.0010948900    0.0000031300
   0.4634376100   -0.0086376000    0.0000000000
   0.0112796000   -0.0000237700   -0.0000139100
   0.0112796000   -0.0000237700    0.0000139100
  -0.0117022700    0.0066908000    0.0000000000
  -0.0029485100    0.0020625600   -0.0000012300
  -0.0029485100    0.0020625600    0.0000012300
   0.0042802700    0.0044214500   -0.0012946800
   0.0006449100    0.0007736200    0.0000000000
   0.0042802700    0.0044214500    0.0012946800
   0.0029901400   -0.0022828100    0.0010373200
   0.0005372400   -0.0002721500    0.0000000000
   0.0029901400   -0.0022828100   -0.0010373200
  -0.0022060600    0.0022002700    0.0002430200
  -0.0003381600    0.0003645100    0.0000000000
  -0.0022060600    0.0022002700   -0.0002430200
   0.0110045800   -0.0048381700    0.0000000000
   0.0020825700   -0.0013731800   -0.0005889700
   0.0020825700   -0.0013731800    0.0005889700
   0.0126093800    0.0029916200    0.0000000000
   0.0017706300    0.0002056600    0.0009873200
   0.0017706300    0.0002056600   -0.0009873200
   0.0055650700    0.0006889500    0.0000000000
   0.0010708300   -0.0006121700   -0.0003935600
   0.0010708300   -0.0006121700    0.0003935600
  -0.1804563700    0.0970117900    0.0000000000
  -0.0053865200    0.0009070200   -0.0058833700
  -0.0053865200    0.0009070200    0.0058833700
  -0.1989790700   -0.0630722600    0.0000000000
  -0.0049476600   -0.0026210700    0.0067895500
  -0.0049476600   -0.0026210700   -0.0067895500
  -0.0519085600   -0.0123924600    0.0000000000
  -0.0019882900   -0.0005559100   -0.0009004000
  -0.0019882900   -0.0005559100    0.0009004000
   0.0011915900    0.0054068800   -0.0004891600
   0.0002403900    0.0004779700    0.0000000000
   0.0011915900    0.0054068800    0.0004891600
  -0.0011820100   -0.0152260600   -0.0137163100
   0.0002680400   -0.0016923000    0.0000000000
  -0.0011820100   -0.0152260600    0.0137163100
  -0.0181484500   -0.0026342900    0.0142995500
  -0.0018181100   -0.0004625900    0.0000000000
  -0.0181484500   -0.0026342900   -0.0142995500

13
  0.0000000000000000   0.0000000000000000   0.0100000000000000
   0.0000142400    0.0000506100    0.0001913600
  -0.0002263100   -0.0001827700    0.0000162800
   0.0002216900    0.0002660600    0.0000271800
   0.0000367100   -0.0000376400    0.0001913600
  -0.0000451300    0.0002873800    0.0000162800
   0.0001195700   -0.0003250200    0.0000271800
  -0.0000509500   -0.0000129700    0.0001913600
   0.0002714400   -0.0001046000    0.0000162800
  -0.0003412600    0.0000589600    0.0000271800
   0.0000000000    0.0000000000    0.0001057600
   0.0000000000    0.0000000000   -0.0000609100
   0.0000000000    0.0000000000    0.0001038600
   0.0000000000    0.0000000000   -0.1621979600
   0.0000000000    0.0000000000    0.0050908800
   0.0000000000    0.0000000000    0.0050349600
   0.0000000000    0.0000000000   -0.0004814400
   0.0000000000    0.0000000000   -0.0000325400
   0.0000000000    0.0000000000   -0.0000303700
  -0.0000945700   -0.0001555200    0.0001891600
   0.0000013200   -0.0000075700   -0.0001587700
   0.0000878500    0.0001284400    0.0001694700
   0.0001819700   -0.0000041400    0.0001891600
   0.0000058900    0.0000049300   -0.0001587700
  -0.0001551600    0.0000118600    0.0001694700
  -0.0000874000    0.0001596600    0.0001891600
  -0.0000072100    0.0000026400   -0.0001587700
   0.0000673100   -0.0001403000    0.0001694700
  -0.0000214100   -0.0001873800   -0.0017530400
   0.0001361900   -0.0002985900    0.0000144300
  -0.0001614500   -0.0000734800    0.0000005800
  -0.0001515700    0.0001122300   -0.0017530400
  -0.0003266800    0.0000313600    0.0000144300
   0.0000170900    0.0001765600    0.0000005800
   0.0001729800    0.0000751500   -0.0017530400
   0.0001905000    0.0002672400    0.0000144300
   0.0001443600   -0.0001030800    0.0000005800
   0.0005293400   -0.0003999400    0.0515412500
   0.0016370400   -0.0002578800   -0.0003640500
  -0.0016954400    0.0002097700   -0.0003670800
  -0.0006110300   -0.0002584500    0.0515412500
  -0.0010418500   -0.0012887800   -0.0003640500
   0.0010293900    0.0013634100   -0.0003670800
   0.0000816900    0.0006583900    0.0515412500
  -0.0005951900    0.0015466500   -0.0003640500
   0.0006660600   -0.0015731800   -0.0003670800
   0.0006626000   -0.0040507800    0.0001891300
  -0.0000058400   -0.0000957600    0.0008676600
  -0.0006698400    0.0038426700    0.0002590300
   0.0031767800    0.0025992200    0.0001891300
   0.0000858500    0.0000428200    0.0008676600
  -0.0029929300   -0.0025014400    0.0002590300
  -0.0038393800    0.0014515700    0.0001891300
  -0.0000800100    0.0000529400    0.0008676600
   0.0036627700   -0.0013412300    0.0002590300

16
  0.0100000000000000   0.0000000000000000   0.0000000000000000
   0.0013529200   -0.0092577900    0.0000000000
  -0.0002880100   -0.0012848700   -0.0008400200
  -0.0002880100   -0.0012848700    0.0008400200
   0.0124818500   -0.0005995300    0.0000000000
   0.0016942300   -0.0001863800    0.0006225600
   0.0016942300   -0.0001863800   -0.0006225600
  -0.0007076100    0.0045150100    0.0000000000
  -0.0003627700    0.0009189200    0.0002185900
  -0.0003627700    0.0009189200   -0.0002185900
   0.0051726900   -0.0028142100   -0.0000034500
   0.0009881700   -0.0007186700    0.0000000000
   0.0051726900   -0.0028142100    0.0000034500
   0.0116923700    0.0066613700    0.0000000000
   0.0029393900    0.0020515000    0.0000010000