144
10

1
  0.0100000000000000   0.0000000000000000   0.0000000000000000
  -0.3380113300   -0.0592016400    0.1669277300
   0.0041022000    0.0003862400   -0.0007348700
   0.0002770800   -0.0004939000    0.0001364900
  -0.0000971300    0.0004745800    0.0000076500
  -0.0012333400   -0.0000271700   -0.0004166800
   0.0012090400    0.0000025000   -0.0005165100
   0.0003107700   -0.0002719900   -0.0002589800
  -0.0000684800    0.0002004800   -0.0001691600
   0.0000039500   -0.0020083400   -0.0025342700
   0.0008536900    0.0006746900    0.0008609900
  -0.0002803100   -0.0003527800   -0.0002520100
   0.0001201000    0.0002408300   -0.0001075900
   0.0002500700   -0.0013712300    0.0047156300
   0.0015761300    0.0005321100   -0.0013364800
  -0.0004850200   -0.0009350400   -0.0003115800
   0.0002902600    0.0006022700    0.0003177800
  -0.0024326100   -0.0001640100   -0.0013501000
   0.0009111000   -0.0002349600    0.0004812800
   0.0003821000   -0.0012183000    0.0009829700
   0.0001190900    0.0012962600   -0.0010330100
  -0.0014446900    0.0011699800   -0.0011792800
   0.0004613500   -0.0000425800   -0.0000196100
   0.0005509800   -0.0008587700   -0.0004370400
  -0.0000291700    0.0004890800    0.0000769000
  -0.0007128000   -0.0010234900    0.0011587700
   0.0010525600    0.0001688700   -0.0010123000
  -0.0004777800   -0.0016696400   -0.0018018900
   0.0002069000    0.0004393300    0.0003450400
   0.0009565400   -0.0016756200   -0.0021884500
   0.0003189200    0.0001369900    0.0001896100
  -0.0004668100    0.0000192200   -0.0000817900
   0.0001516300    0.0001351100   -0.0001592300
   0.0017062100   -0.0003859000    0.0027325200
   0.0016879300   -0.0001792200   -0.0025612700
   0.0001689800   -0.0000528400    0.0000159500
  -0.0002978300    0.0001328400   -0.0000588200
   0.0011017800    0.0002203900   -0.0010997700
   0.0010864000   -0.0002508500    0.0023334500
   0.0003137000    0.0000908200    0.0001630500
  -0.0002920400   -0.0000569000   -0.0001093600
   0.0581044200    0.0181017500   -0.0117008200
   0.0061614600    0.0002592900    0.0018592800
   0.0004630400   -0.0002994400    0.0002607300
  -0.0002564600    0.0004889300    0.0000376700
  -0.0008987500    0.0000529300   -0.0010229200
   0.0008578900    0.0000008500    0.0000589500
   0.0001793000   -0.0001568600   -0.0001655200
  -0.0003719700    0.0001709600   -0.0002402300
   0.0035150400   -0.0008902200   -0.0092421100
   0.0016504500   -0.0001890200    0.0006587800
  -0.0000570800   -0.0002480800    0.0000610000
  -0.0000512300    0.0001909000    0.0000116200
  -0.0030019500    0.0002208800    0.0022323200
   0.0020510800   -0.0001925300   -0.0014008900
  -0.0000504700   -0.0002811600   -0.0000567000
  -0.0000439400    0.0002255800    0.0001404600
   0.0055675300   -0.0021198100   -0.0225287300
   0.0012960100   -0.0001018000    0.0004468200
   0.0001377900   -0.0007632400    0.0001830500
  -0.0002391900    0.0009655000    0.0003607700
  -0.0007263900    0.0001980500    0.0002111800
   0.0006915300   -0.0003791900   -0.0003834400
   0.0002178800   -0.0006451100   -0.0003371000
  -0.0002331800    0.0004861800    0.0001024800
  -0.0003560200   -0.0030202000    0.0017838800
   0.0031481300    0.0034540100   -0.0014617800
  -0.0025101200   -0.0017816300    0.0008136000
   0.0007126700    0.0005065100    0.0000813900
   0.0003936200   -0.0002351500   -0.0005744200
   0.0002322900    0.0003267100   -0.0001628600
  -0.0002589700    0.0001450000   -0.0004003800
   0.0002298800    0.0000800900   -0.0000508900
  -0.0013847300   -0.0096204400   -0.0026919600
   0.0017142100    0.0015067600    0.0009449600
  -0.0010159100   -0.0012961900    0.0003940800
   0.0014401700    0.0016767200    0.0002796700
  -0.0008233100   -0.0004094700   -0.0006824500
   0.0004005800    0.0003924600    0.0001414800
  -0.0002961600   -0.0009374200   -0.0008241500
   0.0003061700    0.0004438500    0.0001495300
  -0.0094009800    0.0021046400   -0.0063941300
   0.0015839800   -0.0008012100    0.0009755700
   0.0006487300   -0.0013350900    0.0005599600
  -0.0002204000    0.0010129300   -0.0000227200
  -0.0008979900    0.0006403600   -0.0001979600
   0.0007223900   -0.0003871300    0.0000037300
   0.0003211900   -0.0006193600    0.0001472200
  -0.0002212900    0.0006408400   -0.0003188500
   0.0004460400   -0.0005401300    0.0007335400
   0.0014430300    0.0013819100   -0.0025324400
  -0.0000049100    0.0000625800   -0.0002305900
   0.0000165400   -0.0000610700   -0.0001277900
   0.0018473200    0.0003554000   -0.0017447700
   0.0016040700   -0.0003345700    0.0046344600
   0.0000061500    0.0004549800    0.0000411300
  -0.0000190000   -0.0003102800   -0.0000245500
   0.0071972300    0.0061751700    0.0051700700
  -0.0021021000   -0.0012654300   -0.0017123100
   0.0016921600    0.0039227000   -0.0029491900
  -0.0034118800   -0.0035742800    0.0030640700
   0.0018312100   -0.0005038400    0.0013356000
  -0.0007369500   -0.0002969000   -0.0000251900
  -0.0012067800    0.0020570400    0.0019926400
  -0.0004539200   -0.0007934000   -0.0001581100
   0.2529964600    0.0464611500   -0.1223661400
  -0.0061434400   -0.0005317100   -0.0020374500
  -0.0008216300    0.0016936500   -0.0008168900
   0.0003759900   -0.0017740500   -0.0001556100
   0.0020987600   -0.0004954200    0.0008658600
  -0.0019902600    0.0004572900    0.0005484700
  -0.0005709200    0.0010182500    0.0003604700
   0.0005216200   -0.0009005200    0.0004135700
  -0.0031201600    0.0004200100   -0.0024320700
  -0.0034072000    0.0012786100    0.0058750200
  -0.0000889000   -0.0002556400    0.0000649800
   0.0003954200    0.0003146100    0.0003421800
  -0.0035686900   -0.0007048300    0.0036345800
   0.0010713600    0.0006123900   -0.0092191500
  -0.0003610700   -0.0008266100   -0.0003879200
   0.0004302700    0.0008878500    0.0005370600
   0.0008628300    0.0006899500    0.0010621200
  -0.0005391000   -0.0003185500   -0.0000981500
   0.0002924300    0.0005826000   -0.0001997900
  -0.0006625700   -0.0009315800    0.0007732100
   0.0037801100   -0.0001226100   -0.0018973600
  -0.0012612300   -0.0006451000    0.0001754000
  -0.0021904200    0.0054936700    0.0003759300
  -0.0013452800   -0.0017413400   -0.0010961700
   0.0132660300    0.0013018400   -0.0006809700
  -0.0029901500    0.0004530400    0.0005457900
  -0.0007559000    0.0013566900   -0.0000027100
   0.0005115500   -0.0012039400    0.0000704500
   0.0031375800   -0.0010524100    0.0058669200
  -0.0021240100    0.0002100400   -0.0003332200
  -0.0004468600    0.0007096800    0.0000321200
   0.0003876000   -0.0006353200   -0.0000388400
  -0.0105806900    0.0014719900   -0.0016441200
   0.0111614500   -0.0025426200   -0.0003215300
  -0.0001125000   -0.0003771500   -0.0003163200
   0.0004111600    0.0003720300   -0.0001888300
  -0.0007015200   -0.0002592000    0.0006088000
   0.0006197300    0.0001838900    0.0004618500
  -0.0002172800   -0.0002900900    0.0002154400
   0.0002602100    0.0003892900    0.0001815200

1
 -0.0100000000000000   0.0000000000000000   0.0000000000000000
   0.3488434500    0.0635744500   -0.1772696200
  -0.0039813700   -0.0004254700    0.0005988300
  -0.0001862600    0.0004433600   -0.0002608100
   0.0001841300   -0.0005205800   -0.0001317100
   0.0013190600   -0.0000200100    0.0002874600
  -0.0011100400   -0.0000507700    0.0003874500
  -0.0002212400    0.0002230400    0.0001359100
   0.0001673000   -0.0002426000    0.0000353200
  -0.0001024500    0.0019186500    0.0023754000
  -0.0009408000   -0.0007333100   -0.0009951300
   0.0001890500    0.0002948600    0.0001240600
  -0.0002084400   -0.0002975000   -0.0000260600
  -0.0003417100    0.0013083500   -0.0047881800
  -0.0016581900   -0.0005676200    0.0012313700
   0.0003922300    0.0008761200    0.0001840700
  -0.0003744300   -0.0006384000   -0.0004344900
   0.0024108400    0.0003058500    0.0012334400
  -0.0009110800    0.0003370600   -0.0006129300
  -0.0003724700    0.0013120200   -0.0011137300
  -0.0001301100   -0.0011719800    0.0008855100
   0.0014193000   -0.0010461600    0.0010277600
  -0.0004574100    0.0001440600   -0.0001020700
  -0.0005468600    0.0009566500    0.0003090400
   0.0000322000   -0.0003859400   -0.0001965400
   0.0007421100    0.0008940500   -0.0012799400
  -0.0010549200   -0.0002593600    0.0008843500
   0.0004759600    0.0015630300    0.0016574600
  -0.0002066500   -0.0005428700   -0.0004737500
  -0.0009482700    0.0015590600    0.0020508400
  -0.0003185100   -0.0002389800   -0.0003107200
   0.0004559400   -0.0001137200   -0.0000424600
  -0.0001484700   -0.0002373400    0.0000347000
  -0.0015998200    0.0004389800   -0.0026140900
  -0.0016127100    0.0002320400    0.0026380800
  -0.0000793100    0.0001081100    0.0001064500
   0.0003823900   -0.0000828900    0.0001836900
  -0.0009845800   -0.0001721600    0.0012323900
  -0.0009906400    0.0002974400   -0.0021882300
  -0.0002234000   -0.0000356700   -0.0000382400
   0.0003774600    0.0001078800    0.0002358000
  -0.0598948700   -0.0187177900    0.0117461900
  -0.0061832900   -0.0002091300   -0.0019603100
  -0.0005473400    0.0003502300   -0.0003835400
   0.0001544800   -0.0004416300   -0.0001727700
   0.0008142900   -0.0000031600    0.0008975700
  -0.0009441100    0.0000460300   -0.0001846800
  -0.0002657400    0.0002067000    0.0000405700
   0.0002843100   -0.0001192400    0.0001148600
  -0.0036234000    0.0008367100    0.0092854900
  -0.0017276200    0.0001339800   -0.0005435000
  -0.0000346600    0.0001946100    0.0000649200
  -0.0000329100   -0.0002412400    0.0001099000
   0.0028875800   -0.0002752200   -0.0020936900
  -0.0021230600    0.0001403700    0.0015238700
  -0.0000502700    0.0002306500    0.0001921000
  -0.0000483000   -0.0002717100   -0.0000110700
  -0.0055772400    0.0021975700    0.0228870800
  -0.0013756500    0.0001550600   -0.0003099300
  -0.0002287500    0.0008225000   -0.0000491600
   0.0001494100   -0.0009015800   -0.0002254200
   0.0006373500   -0.0001463700   -0.0000696100
  -0.0007745000    0.0004264000    0.0005035700
  -0.0003048400    0.0007009000    0.0004668200
   0.0001448800   -0.0004294000    0.0000223300
   0.0003657000    0.0029245600   -0.0016620700
  -0.0031238900   -0.0035191800    0.0015731100
   0.0024947800    0.0016811800   -0.0006872100
  -0.0007135400   -0.0006121200    0.0000396400
  -0.0003930300    0.0001281900    0.0006992600
  -0.0002361300   -0.0004325300    0.0002910900
   0.0002546800   -0.0002411800    0.0005198500
  -0.0002236300   -0.0001767300    0.0001688500
   0.0013485700    0.0096652200    0.0028052800
  -0.0017133800   -0.0014057700   -0.0008171300
   0.0010152100    0.0013787400   -0.0002797400
  -0.0014207700   -0.0015525400   -0.0001455700
   0.0008123500    0.0005090200    0.0007997800
  -0.0003921100   -0.0002836100   -0.0000092800
   0.0002958200    0.0010342700    0.0009482400
  -0.0003009600   -0.0003366200   -0.0000181800
   0.0097245400   -0.0020588700    0.0063145400
  -0.0014846300    0.0007315000   -0.0008290400
  -0.0005584400    0.0012699200   -0.0004270500
   0.0003043700   -0.0010621000    0.0001486000
   0.0009798100   -0.0006947900    0.0003375500
  -0.0006321600    0.0003247800    0.0001223500
  -0.0002309700    0.0005550300   -0.0000140800
   0.0003062800   -0.0006874600    0.0004374500
  -0.0003538500    0.0005904800   -0.0008575400
  -0.0013513700   -0.0013261900    0.0023950500
   0.0000970700    0.0000018400    0.0000994400
   0.0000699500    0.0001148700    0.0000010500
  -0.0017370300   -0.0002774100    0.0016118000
  -0.0015024200    0.0003995400   -0.0047240500
   0.0000854700   -0.0003862100   -0.0001693000
   0.0001055800    0.0003574300   -0.0000973900
  -0.0071322700   -0.0062043900   -0.0051405600
   0.0021060000    0.0012803400    0.0017173400
  -0.0017489800   -0.0039040200    0.0029643900
   0.0033815200    0.0035392300   -0.0030331600
  -0.0018119900    0.0004908900   -0.0013183300
   0.0007333600    0.0002997300    0.0000208700
   0.0011961800   -0.0020460300   -0.0019825800
   0.0004530600    0.0007875000    0.0001525700
  -0.2637073700   -0.0500925800    0.1327310100
   0.0061057100    0.0005243400    0.0020001100
   0.0008185300   -0.0016915300    0.0008115500
  -0.0003725900    0.0017691300    0.0001574100
  -0.0020918600    0.0004930300   -0.0008775800
   0.0019840400   -0.0004559800   -0.0005412300
   0.0005696200   -0.0010153200   -0.0003630900
  -0.0005191500    0.0008991900   -0.0004103600
   0.0031029700   -0.0004260800    0.0024437100
   0.0034342700   -0.0012817700   -0.0058404000
   0.0000816700    0.0002466600   -0.0000624700
  -0.0003903900   -0.0003081500   -0.0003398900
   0.0035369500    0.0006924700   -0.0036549400
  -0.0010410100   -0.0005887500    0.0091520800
   0.0003548300    0.0008106700    0.0003901400
  -0.0004236300   -0.0008760900   -0.0005326500
  -0.0008525000   -0.0006904800   -0.0010631800
   0.0005382700    0.0003216500    0.0001034000
  -0.0002978000   -0.0005766700    0.0001937500
   0.0006604200    0.0009261000   -0.0007647700
  -0.0037318200    0.0000871600    0.0019026000
   0.0012581700    0.0006516500   -0.0001797300
   0.0021657000   -0.0054689900   -0.0003660300
   0.0013377200    0.0017225800    0.0010846500
  -0.0133295200   -0.0013405300    0.0004406500
   0.0029769900   -0.0004533200   -0.0005318300
   0.0007543200   -0.0013538700    0.0000009000
  -0.0005083800    0.0011986600   -0.0000673600
  -0.0031261400    0.0010705100   -0.0058124300
   0.0021166900   -0.0002102200    0.0003247400
   0.0004484100   -0.0007100400   -0.0000318000
  -0.0003858400    0.0006335800    0.0000374700
   0.0106112000   -0.0014949600    0.0016440100
  -0.0099007500    0.0023567300    0.0002172300
   0.0001045200    0.0003653800    0.0003127800
  -0.0004036100   -0.0003600100    0.0001872200
   0.0006912000    0.0002555500   -0.0006065700
  -0.0006098200   -0.0001812200   -0.0004594300
   0.0002119700    0.0002844900   -0.0002147000
  -0.0002577400   -0.0003864900   -0.0001831300

1
 -0.0050000000085216   0.0086602540329245   0.0000000000000000
   0.1179683600   -0.0439937300   -0.0480828100
  -0.0016015800   -0.0002748400    0.0001637100
  -0.0004619000    0.0005044700   -0.0000637500
   0.0005609400   -0.0000093300   -0.0002211400
   0.0006903500   -0.0002022200   -0.0000263700
  -0.0005042700   -0.0000625800    0.0001292300
  -0.0002893500    0.0002205300    0.0000782300
   0.0003108700   -0.0000385600   -0.0001119700
  -0.0000449400    0.0002316900    0.0006368600
  -0.0003989800   -0.0004272200   -0.0004299600
   0.0000471200    0.0003369500   -0.0000127900
  -0.0000040100    0.0001058100    0.0000256700
  -0.0015154300   -0.0008205200   -0.0034337400
  -0.0006208900   -0.0007444100    0.0002401100
   0.0001995800    0.0011317300    0.0004238400
   0.0000030800    0.0001814100   -0.0001607500
   0.0011617000    0.0010747700    0.0021383900
  -0.0003857600    0.0002203100   -0.0002728300
  -0.0010471900    0.0013254800   -0.0009293800
   0.0001836800   -0.0003325200    0.0002173900
  -0.0000709100    0.0000949600   -0.0008706900
  -0.0002199400    0.0001312000   -0.0001178500
  -0.0005543800    0.0007820700    0.0002570900
   0.0001347000   -0.0001308000   -0.0000271200
  -0.0013385700    0.0009656200   -0.0014048500
  -0.0001984000   -0.0002184700    0.0001033200
  -0.0001849400    0.0018856500    0.0020009400
  -0.0000389700   -0.0001540500   -0.0002061700
  -0.0008759100    0.0010452400    0.0019427500
  -0.0000864500   -0.0001731600   -0.0001431000
  -0.0001349800    0.0003232900   -0.0003494400
   0.0000100900   -0.0000852700   -0.0000466200
  -0.0005906500   -0.0000276100   -0.0008072700
  -0.0004120400   -0.0001296000    0.0013207400
   0.0000643600    0.0002625300    0.0001619400
   0.0001314500    0.0002030600   -0.0000310100
  -0.0002224600   -0.0006886600    0.0007004800
  -0.0006305600   -0.0004502000   -0.0010441800
  -0.0001313600    0.0002227700   -0.0001311800
   0.0002916800    0.0002509300    0.0003067300
  -0.0135636900   -0.0197566300    0.0030020900
  -0.0029215300   -0.0001843600   -0.0009667300
  -0.0005877800    0.0004638000   -0.0002781800
   0.0004531100    0.0001770300    0.0000262700
   0.0003937500   -0.0001938100    0.0002558200
  -0.0005202100   -0.0000049900   -0.0001744800
  -0.0003194400    0.0002470000   -0.0000601100
   0.0002350000    0.0000243700    0.0000429600
  -0.0010921300   -0.0008074800    0.0036689400
  -0.0007556400   -0.0000420400   -0.0000833000
  -0.0002376700    0.0002629300    0.0000574500
   0.0001447900    0.0000421500    0.0001036200
   0.0011979600   -0.0009189900   -0.0009815100
  -0.0009457200   -0.0001417900    0.0007865400
  -0.0002794700    0.0003217400    0.0003523500
   0.0001617500    0.0000687600   -0.0001175700
  -0.0207922500   -0.0054337900    0.0322542700
  -0.0005665200   -0.0000556900   -0.0001725200
  -0.0005696800    0.0012786800    0.0001931800
   0.0001536400   -0.0000670100    0.0000726900
   0.0003519400   -0.0005170000   -0.0001968000
  -0.0003592300    0.0001575000    0.0002228800
  -0.0003603400    0.0007066400    0.0004323100
   0.0001026600   -0.0000971700    0.0000398500
  -0.0006087700    0.0005606200   -0.0005519900
  -0.0005498900   -0.0014086100    0.0004418000
   0.0015285100    0.0018028900   -0.0000211100
  -0.0002149500   -0.0000799000    0.0000059200
  -0.0005056100   -0.0001153200    0.0006431500
  -0.0000833800   -0.0002643000    0.0001732100
   0.0001400200    0.0002608500   -0.0001236200
  -0.0000533600   -0.0000233500    0.0000726200
  -0.0014084400    0.0096524800    0.0033105200
  -0.0005377800   -0.0004004500   -0.0002187900
  -0.0005410600    0.0011200000   -0.0005010500
  -0.0002576800   -0.0002375900    0.0000884200
  -0.0000608700    0.0000826500   -0.0000589200
  -0.0001265600   -0.0000776500    0.0000333400
   0.0001138300    0.0008134700    0.0007612300
  -0.0000349300   -0.0000237000    0.0000816000
   0.0202980800    0.0006227000   -0.0202546800
  -0.0006549900    0.0002463200   -0.0003494500
  -0.0006581100    0.0013263100   -0.0003408600
   0.0003565200   -0.0001553300    0.0001108600
   0.0006146600   -0.0007868400    0.0002168600
  -0.0002660900    0.0000895400    0.0000992900
  -0.0002671000    0.0005607200   -0.0000722100
   0.0002322900   -0.0002327000    0.0001580100
  -0.0002132200   -0.0000196000   -0.0003015700
  -0.0004654500   -0.0007328700    0.0009191300
   0.0001921100    0.0003269200   -0.0000165600
   0.0000709500    0.0003047100   -0.0001596400
  -0.0015450300   -0.0009304000    0.0007987000
  -0.0001697600   -0.0012093300   -0.0011445400
   0.0002900100    0.0007222900   -0.0004630700
   0.0001546400    0.0005858200   -0.0000970200
  -0.0045413500   -0.0064153000   -0.0054787000
   0.0006964000    0.0002534700    0.0006458500
   0.0023238700   -0.0024718000    0.0014356700
   0.0005237300    0.0009668600   -0.0008573400
   0.0000830400   -0.0005570600    0.0005404400
   0.0002312200    0.0000403700    0.0000866600
   0.0013573400   -0.0014736600   -0.0016264500
   0.0000145400    0.0003589500   -0.0000786000
  -0.0843827800    0.0553515000    0.0296996500
   0.0027528600    0.0004800000    0.0011048400
   0.0011643100   -0.0019750400    0.0002936800
  -0.0009044300    0.0000051100   -0.0000232700
  -0.0011305700    0.0009430000   -0.0001675600
   0.0009520600   -0.0001049200   -0.0001810300
   0.0006937000   -0.0010296700   -0.0002071300
  -0.0005129100    0.0001956900   -0.0000941600
   0.0012655000    0.0002206800    0.0007948300
   0.0008440700    0.0001037100   -0.0021659700
  -0.0002477800   -0.0004095000   -0.0000833500
   0.0000409700   -0.0006336100    0.0000184100
   0.0016952800    0.0018003100   -0.0019397600
   0.0003265000    0.0035129900    0.0043459500
  -0.0001448400   -0.0007020500    0.0006819000
  -0.0002270900   -0.0013731700   -0.0008257500
  -0.0002408200   -0.0002168100   -0.0010706500
   0.0001793800    0.0000518700    0.0000268400
   0.0000844300   -0.0002833500    0.0005676000
   0.0001488900    0.0003391900   -0.0001646400
   0.0004793200   -0.0030614100    0.0020331200
   0.0004045300    0.0000724200   -0.0000433600
   0.0032440300   -0.0046424600   -0.0006489200
   0.0000491200    0.0005908300    0.0002025800
  -0.0050108800    0.0042913400    0.0011764100
   0.0012819500   -0.0000498600   -0.0002896900
   0.0009200400   -0.0015204200   -0.0000522600
  -0.0005342100    0.0001819100    0.0000837800
  -0.0022329300    0.0043108400   -0.0019641900
   0.0010352700   -0.0000320000    0.0001657300
   0.0006545500   -0.0008321100    0.0000299100
  -0.0004995200    0.0000799000   -0.0000728500
   0.0035712100   -0.0000058600    0.0006281100
  -0.0092813600    0.0050239800    0.0001051000
  -0.0003398500   -0.0007285000    0.0000629700
  -0.0000736600   -0.0010824400    0.0001428100
   0.0003237700    0.0003317400   -0.0002652300
  -0.0001629800    0.0002304700   -0.0000601200
  -0.0000457900   -0.0001790900   -0.0000282100
  -0.0001131700   -0.0004039600   -0.0001257500

1
  0.0050000000085216  -0.0086602540329245   0.0000000000000000
  -0.1191087500    0.0445718900    0.0478577100
   0.0017384600    0.0002374200   -0.0003139100
   0.0005677500   -0.0005482400   -0.0000716600
  -0.0004601000   -0.0000308100    0.0000861800
  -0.0005862400    0.0001612800   -0.0001164400
   0.0006147700    0.0000182100   -0.0002691600
   0.0003908600   -0.0002647300   -0.0002127600
  -0.0001986600    0.0000014200   -0.0000348400
  -0.0000477200   -0.0003258800   -0.0008012700
   0.0003082200    0.0003546800    0.0002892800
  -0.0001386700   -0.0003994200   -0.0001231800
  -0.0000894700   -0.0001753000   -0.0001688200
   0.0014319100    0.0007523700    0.0033346200
   0.0005366500    0.0006789600   -0.0003855400
  -0.0002919400   -0.0011957900   -0.0005577000
  -0.0000943500   -0.0002385800    0.0000301200
  -0.0011798400   -0.0009783500   -0.0022903200
   0.0003829000   -0.0001118900    0.0001411900
   0.0010365800   -0.0012180800    0.0007985000
  -0.0002013600    0.0004556400   -0.0003637300
   0.0000458900    0.0000293200    0.0007167200
   0.0002121100   -0.0000184600   -0.0000181400
   0.0005424200   -0.0006685400   -0.0003986300
  -0.0001463500    0.0002449500   -0.0001092500
   0.0013338700   -0.0010763000    0.0012590400
   0.0002046900    0.0001126000   -0.0002379200
   0.0002012400   -0.0020233700   -0.0021702800
   0.0000496100    0.0000440400    0.0000703500
   0.0008922800   -0.0011654600   -0.0020874100
   0.0000968300    0.0000604400    0.0000052800
   0.0001427300   -0.0004343500    0.0002093600
   0.0000037000   -0.0000270600   -0.0000918000
   0.0007030200    0.0000708200    0.0009616700
   0.0005201600    0.0001741500   -0.0011958200
   0.0000426700   -0.0002163800   -0.0000210900
  -0.0000296900   -0.0001536500    0.0001673900
   0.0003348000    0.0007305000   -0.0005636800
   0.0007399600    0.0004993100    0.0011912400
   0.0002307700   -0.0001723800    0.0002661100
  -0.0001875100   -0.0002037300   -0.0001665500
   0.0135635600    0.0195983600   -0.0032143800
   0.0028556000    0.0002351300    0.0008480600
   0.0004858700   -0.0004190900    0.0001441600
  -0.0005625700   -0.0001305000   -0.0001669900
  -0.0005048300    0.0002373100   -0.0004006400
   0.0004305100    0.0000523700    0.0000453300
   0.0002178700   -0.0001997400   -0.0000763400
  -0.0003447100    0.0000202500   -0.0001867100
   0.0009914600    0.0007642100   -0.0035578000
   0.0006690400   -0.0000116500    0.0002162600
   0.0001355300   -0.0003093000    0.0000780800
  -0.0002408700   -0.0000916400    0.0000258400
  -0.0013092900    0.0008722100    0.0011201500
   0.0008629200    0.0000880700   -0.0006661800
   0.0001679600   -0.0003658700   -0.0002068500
  -0.0002695200   -0.0001124300    0.0002571400
   0.0204481200    0.0054861500   -0.0315409800
   0.0004812400    0.0001155300    0.0003084000
   0.0004757900   -0.0012096100   -0.0000488000
  -0.0002464400    0.0001424600    0.0000702500
  -0.0004469500    0.0005890900    0.0003364400
   0.0002718200   -0.0000953600   -0.0000883000
   0.0002688300   -0.0006341600   -0.0002911400
  -0.0001946800    0.0001603200    0.0000902900
   0.0005828300   -0.0007000600    0.0007065800
   0.0005453500    0.0013085800   -0.0003071100
  -0.0015634400   -0.0019299700    0.0001709900
   0.0002111300   -0.0000265900    0.0001245900
   0.0004933600   -0.0000008600   -0.0005068700
   0.0000660500    0.0001492800   -0.0000346000
  -0.0001558900   -0.0003706100    0.0002543800
   0.0000522500   -0.0000796600    0.0000526600
   0.0014825100   -0.0097308800   -0.0032199200
   0.0005604400    0.0005240700    0.0003646700
   0.0005361000   -0.0010172900    0.0006317700
   0.0002794200    0.0003611200    0.0000589100
   0.0000658500    0.0000279600    0.0001881300
   0.0001456000    0.0001967600    0.0001113600
  -0.0000985800   -0.0006993900   -0.0006210100
   0.0000458100    0.0001381800    0.0000557000
  -0.0202627700   -0.0007100300    0.0205045000
   0.0007533600   -0.0003280000    0.0004997000
   0.0007486900   -0.0013996900    0.0004820600
  -0.0002701900    0.0000987800    0.0000208000
  -0.0005307700    0.0007294400   -0.0000908700
   0.0003607300   -0.0001753000    0.0000479300
   0.0003584400   -0.0006342200    0.0002117200
  -0.0001468500    0.0001810300   -0.0000352500
   0.0003055700    0.0000776600    0.0001722800
   0.0005610500    0.0007911100   -0.0010553800
  -0.0000998900   -0.0002517100   -0.0001277100
   0.0000223800   -0.0002243900    0.0000140800
   0.0016464900    0.0010047400   -0.0009524800
   0.0002605900    0.0012892600    0.0010101100
  -0.0001995200   -0.0006481100    0.0003281100
  -0.0000620500   -0.0005185900   -0.0000376900
   0.0046065100    0.0064598200    0.0055196600
  -0.0007073800   -0.0002602000   -0.0006557700
  -0.0023002000    0.0024809800   -0.0014540000
  -0.0005379400   -0.0009786800    0.0008654200
  -0.0000684900    0.0005463700   -0.0005253600
  -0.0002334400   -0.0000436100   -0.0000833600
  -0.0013603800    0.0014798000    0.0016328200
  -0.0000181200   -0.0003583600    0.0000778600
   0.0852476500   -0.0556508800   -0.0301284000
  -0.0027779800   -0.0004836900   -0.0011132300
  -0.0011690100    0.0019806700   -0.0003005500
   0.0009031400   -0.0000120700    0.0000219700
   0.0011372300   -0.0009474900    0.0001782100
  -0.0009576700    0.0001067100    0.0001822200
  -0.0006969700    0.0010339100    0.0002085300
   0.0005115300   -0.0001962800    0.0000956400
  -0.0012768100   -0.0002152200   -0.0008040900
  -0.0008578100   -0.0001045500    0.0021892500
   0.0002491100    0.0004125600    0.0000885300
  -0.0000431900    0.0006327200   -0.0000143400
  -0.0017117800   -0.0018018300    0.0019594900
  -0.0003194600   -0.0035297800   -0.0043689800
   0.0001442800    0.0006949500   -0.0006813000
   0.0002280600    0.0013742000    0.0008244400
   0.0002447600    0.0002194900    0.0010842500
  -0.0001821300   -0.0000518900   -0.0000254800
  -0.0000828700    0.0002857400   -0.0005643300
  -0.0001520000   -0.0003417100    0.0001700600
  -0.0004420300    0.0030391700   -0.0020500200
  -0.0004110000   -0.0000754400    0.0000452400
  -0.0032481500    0.0046614500    0.0006504600
  -0.0000528400   -0.0005944600   -0.0002064700
   0.0050749400   -0.0042929300   -0.0011811000
  -0.0012945100    0.0000504000    0.0002914700
  -0.0009248000    0.0015289000    0.0000529300
   0.0005356500   -0.0001862700   -0.0000820000
   0.0022359200   -0.0042929000    0.0020023900
  -0.0010425700    0.0000323600   -0.0001662100
  -0.0006544100    0.0008333100   -0.0000299200
   0.0004995300   -0.0000820600    0.0000743700
  -0.0036231700    0.0000138900   -0.0006394000
   0.0096757500   -0.0049638900   -0.0001513400
   0.0003415500    0.0007293000   -0.0000681000
   0.0000728900    0.0010821700   -0.0001450000
  -0.0003262500   -0.0003328300    0.0002688000
   0.0001635400   -0.0002302700    0.0000657300
   0.0000437900    0.0001782400    0.0000307400
   0.0001130300    0.0004041900    0.0001260400

1
  0.0000000000000000   0.0000000000000000   0.0100000000000000
   0.1762654400    0.0450165900   -0.2106893400
  -0.0006145700   -0.0001320600   -0.0004999200
   0.0002391500    0.0001012300   -0.0007081500
   0.0001175400   -0.0001517900   -0.0003925500
  -0.0003008900   -0.0001710600    0.0023099000
  -0.0004048800   -0.0000568500    0.0005134900
  -0.0001519600    0.0000380700    0.0004110600
  -0.0000560600   -0.0001238600    0.0002639100
  -0.0008334100    0.0017001700    0.0024230100
   0.0002844000    0.0002109300    0.0005872800
  -0.0000012300   -0.0002032500    0.0002021700
  -0.0000875700   -0.0000513300    0.0001020500
   0.0021760600    0.0001913200   -0.0000514800
  -0.0009026400   -0.0007402400   -0.0006548000
   0.0002488100    0.0009111100   -0.0000308500
  -0.0002484900   -0.0005298800   -0.0003325100
  -0.0013623700    0.0047280800   -0.0000425300
  -0.0002825500    0.0003247000   -0.0003397100
   0.0009654700   -0.0008641100   -0.0006514200
  -0.0002419500   -0.0003769000   -0.0000287100
   0.0017399500   -0.0017847200    0.0024287800
  -0.0000564200   -0.0000325200    0.0001029300
  -0.0005741600    0.0007950900    0.0005880900
   0.0001366900   -0.0000926400    0.0002042300
   0.0035884600   -0.0033601800   -0.0009210600
  -0.0002927400   -0.0003352800   -0.0000410500
  -0.0007855900    0.0014160600   -0.0001048100
   0.0000085900   -0.0000854300   -0.0002585200
  -0.0014721200    0.0019448100    0.0026421700
  -0.0001050600    0.0000723100    0.0001760400
   0.0005608300   -0.0006471500    0.0005905100
  -0.0001487900   -0.0000601600    0.0001483700
   0.0026303000   -0.0000254500    0.0003728300
  -0.0026233300    0.0005443800    0.0003738400
   0.0000906000    0.0001019400    0.0000544600
   0.0001703400   -0.0001622400    0.0001325000
  -0.0022172300    0.0000348400    0.0007433700
   0.0012062800    0.0000800500    0.0007341400
  -0.0000617000   -0.0001492800    0.0001996800
   0.0002218900    0.0001990200    0.0002224400
   0.0118948900    0.0032409500   -0.0164526500