144
40

1
  0.0099999975103145   0.0000000000000000  -0.0000070564653367
  -0.2342613900    0.0017111900   -0.0194336800
   0.0145746700    0.0010221700    0.0004231900
   0.0145082800   -0.0007589200    0.0004201800
  -0.0135753900    0.0001268700   -0.0032380300
   0.0055671000   -0.0009646500    0.0010556000
   0.0055589400    0.0012177100    0.0010593900
  -0.0165743600    0.0001351700   -0.0008974100
   0.0067775100    0.0010423500   -0.0000319100
   0.0067714000   -0.0007865100   -0.0000236600
  -0.0077865400    0.0001266400    0.0003109800
   0.0036679600   -0.0004571100    0.0001269300
   0.0036622700    0.0007123800    0.0001346100
   0.0137596500   -0.0265500700   -0.0085046800
   0.0076731800    0.0007318900   -0.0005475400
   0.0137751100    0.0279285000   -0.0085328900
   0.0133563800    0.0233003400   -0.0069708400
   0.0076393900    0.0007391400   -0.0006547500
   0.0133729400   -0.0217259400   -0.0069772400
  -0.0022626000   -0.0026948700    0.0004700500
   0.0057149700    0.0007338100    0.0000538900
  -0.0022434200    0.0041688400    0.0004740600
  -0.0007758300    0.0027736700    0.0008462400
   0.0054643000    0.0007361600   -0.0001866400
  -0.0007479800   -0.0013088700    0.0008468900
   0.0162531400   -0.0015024800    0.0353087800
   0.0080555800   -0.0002618400   -0.0001852600
   0.0148917400    0.0129970100   -0.0224853800
  -0.0012729400    0.0021354600    0.0024123500
   0.0052234800   -0.0003766700   -0.0004470200
  -0.0020211400   -0.0020044400   -0.0020740700
   0.0148805700   -0.0140459700   -0.0226221300
   0.0080577200   -0.0007841500   -0.0001937300
   0.0162782200    0.0003915800    0.0351865600
  -0.0020431500    0.0009602000   -0.0020675600
   0.0052256100   -0.0006633500   -0.0004497300
  -0.0012520200   -0.0031828400    0.0024022900
  -0.0140283700   -0.0001971600    0.0005380800
   0.0052050300   -0.0026097900    0.0018322200
   0.0049615600    0.0015485500   -0.0014872400
  -0.0322195400   -0.0092276900    0.0043830600
   0.0059552200    0.0027436000    0.0028203000
   0.0056162800   -0.0024354500   -0.0024203900
  -0.0140463400    0.0003044500    0.0005373200
   0.0049325900   -0.0014626400   -0.0014820200
   0.0052314200    0.0026900500    0.0018143700
  -0.0322107100    0.0092686900    0.0044165200
   0.0055920600    0.0025345800   -0.0024239900
   0.0059823900   -0.0026378200    0.0027968800
  -0.0013134400    0.0013022400   -0.0001295100
  -0.0024309000    0.0004014400    0.0009793900
   0.0032204100   -0.0023611800    0.0002744600
  -0.0007865100   -0.0007133000   -0.0006506600
  -0.0031063500    0.0014839800    0.0009116100
   0.0028253200    0.0001938300    0.0042824500
  -0.0058788000    0.0043788600    0.0035120800
  -0.0033058200    0.0004699200    0.0010236000
   0.0067038600   -0.0075615500   -0.0018352500
  -0.0057910500   -0.0009281800    0.0024229500
  -0.0048082400    0.0023456100    0.0008786200
   0.0162113800    0.0045051800   -0.0034608900
  -0.0072005000   -0.0026888800   -0.0007840800
  -0.0045081100   -0.0005621000    0.0022701700
   0.0323823700   -0.0040405900   -0.0182141100
  -0.0007841300    0.0008256100    0.0000532800
  -0.0027815700   -0.0007165800    0.0012138000
   0.0036143000    0.0001587400   -0.0010027200
  -0.0038134400   -0.0015653100    0.0032832500
  -0.0033819600   -0.0004538300    0.0006861000
   0.0097876600    0.0026780600   -0.0061812100
  -0.0005605200    0.0008983600    0.0010963000
  -0.0019579400   -0.0003663200    0.0006882700
   0.0030123500    0.0006972000   -0.0016737200
  -0.0037895800    0.0013522900   -0.0062639500
  -0.0034501000   -0.0013587200   -0.0011512500
   0.0051107700    0.0001258600    0.0057822800
  -0.0008063100   -0.0007425500   -0.0006440400
  -0.0022016200   -0.0008886300   -0.0006498600
   0.0026897100    0.0013957900    0.0008638100
  -0.0066781400    0.0007212500    0.0013023400
  -0.0050370800   -0.0021805200   -0.0017735400
   0.0465007200    0.0353433300    0.0250851900
  -0.0013376500   -0.0031434300    0.0015758500
  -0.0031293900   -0.0012269800   -0.0010123500
   0.0037177800    0.0054854900    0.0005428500
  -0.0057387900    0.0036816000   -0.0032555800
  -0.0035723800    0.0001704800   -0.0004969200
   0.0056255100   -0.0086818000    0.0065004500
  -0.0021129300   -0.0028246800   -0.0023313300
  -0.0030336200    0.0007795500   -0.0004764200
   0.0051083900    0.0033845200    0.0033296400
  -0.0023017400    0.0032883900    0.0022502200
  -0.0031662100    0.0002351900   -0.0009472400
   0.0037650300   -0.0045833100   -0.0040158700
  -0.0000690900   -0.0014670000    0.0005406900
  -0.0024563700    0.0005331600   -0.0007182400
   0.0006446600    0.0018411600   -0.0028872200
   0.0039028800    0.0039659800   -0.0040908000
  -0.0029909400   -0.0008503100   -0.0010259800
  -0.0021669900   -0.0039103100    0.0021767500
   0.0007862900   -0.0024439800   -0.0029728400
  -0.0022818800   -0.0011510400   -0.0007967300
   0.0000655600    0.0008476400    0.0004641800
   0.0057874300    0.0081061400    0.0064424700
  -0.0034003300   -0.0007845500   -0.0005728900
  -0.0056002400   -0.0042872100   -0.0033124100
   0.0052677800   -0.0039755100    0.0032485300
  -0.0028623700   -0.0014003800   -0.0005531500
  -0.0019826500    0.0022056000   -0.0024043000
   0.0481866400   -0.0376581800    0.0266545100
  -0.0051579700    0.0020670200   -0.0018430200
  -0.0067968000   -0.0008319700    0.0012248100
   0.0036164300   -0.0056273300    0.0004829500
  -0.0032427400    0.0011072800   -0.0010785200
  -0.0014702500    0.0030037000    0.0015145500
   0.0050177500   -0.0002761600    0.0057274700
  -0.0035636600    0.0012412400   -0.0012145700
  -0.0039197400   -0.0014861900   -0.0063209400
   0.0025878700   -0.0015349500    0.0008075200
  -0.0023147000    0.0007691100   -0.0007144000
  -0.0009400500    0.0006071900   -0.0007029300
   0.0070440800    0.0071868000   -0.0023282200
  -0.0030069300   -0.0008181000    0.0005355500
  -0.0055848700   -0.0047585300    0.0030195400
   0.0169695100   -0.0044628000   -0.0037225200
  -0.0045155100   -0.0027014500    0.0003897600
  -0.0054890800    0.0005217300    0.0019202400
   0.0035604300    0.0019890600   -0.0002104800
  -0.0021320200   -0.0007499200    0.0004935400
  -0.0010203800   -0.0016865800   -0.0006186400
   0.0031754200   -0.0005547300    0.0037712800
  -0.0028088400   -0.0018343000    0.0004270400
  -0.0004972400    0.0003251100   -0.0011376900
   0.0095426300   -0.0019642600   -0.0062782200
  -0.0036625800    0.0011779200    0.0006116200
  -0.0040606400    0.0022876900    0.0032044200
   0.0027428900    0.0000379200   -0.0017707300
  -0.0022369100    0.0010909200    0.0006156600
  -0.0008077500   -0.0001760800    0.0010242100
   0.0327499500    0.0050097400   -0.0196191800
  -0.0047952100    0.0012876400    0.0022045600
  -0.0074415200    0.0034066700   -0.0008244500
   0.0033465200    0.0005792600   -0.0011008900
  -0.0030614800    0.0014414300    0.0011428100
  -0.0010326400   -0.0001014100   -0.0000161800

1
  0.0000000000000000   0.0100000000000000   0.0000000000000000
   0.0000000000   -0.2083443600    0.0000000000
  -0.0008924400   -0.0058813200    0.0007758800
   0.0008924400   -0.0058813200   -0.0007758800
   0.0000000000    0.0150708200    0.0000000000
   0.0011078800    0.0054796400    0.0001068800
  -0.0011078800    0.0054796400   -0.0001068800
   0.0000000000   -0.0056092300    0.0000000000
  -0.0009153700   -0.0032557100   -0.0010726900
   0.0009153700   -0.0032557100    0.0010726900
   0.0000000000    0.0060712700    0.0000000000
   0.0005953200    0.0025752600   -0.0001328100
  -0.0005953200    0.0025752600    0.0001328100
  -0.0230211900    0.0216224300    0.0060929300
   0.0000000000    0.0007290700    0.0000000000
   0.0230211900    0.0216224300   -0.0060929300
   0.0276272100    0.0214092000   -0.0081764700
   0.0000000000    0.0005209600    0.0000000000
  -0.0276272100    0.0214092000    0.0081764700
  -0.0011739300    0.0016047300   -0.0023199900
   0.0000000000    0.0013707300    0.0000000000
   0.0011739300    0.0016047300    0.0023199900
   0.0030630500    0.0003000700    0.0015862400
   0.0000000000    0.0003048700    0.0000000000
  -0.0030630500    0.0003000700   -0.0015862400
  -0.0130837000   -0.0155933500   -0.0232507100
  -0.0003290800   -0.0020590700    0.0001980200
   0.0003817100   -0.0162379000   -0.0047135100
   0.0017125200    0.0074191900    0.0017539800
   0.0000528500    0.0009522000    0.0001148200
  -0.0019973600    0.0075494300    0.0032850400
  -0.0003817100   -0.0162379000    0.0047135100
   0.0003290800   -0.0020590700   -0.0001980200
   0.0130837000   -0.0155933500    0.0232507100
   0.0019973600    0.0075494300   -0.0032850400
  -0.0000528500    0.0009522000   -0.0001148200
  -0.0017125200    0.0074191900   -0.0017539800
  -0.0011248900    0.0108927000   -0.0071592800
  -0.0023773300    0.0035788200   -0.0010396700
   0.0017219100    0.0015939200   -0.0017881300
  -0.0075477600    0.0073237400    0.0346653500
   0.0025875100   -0.0031463000    0.0009228900
  -0.0025126000   -0.0013003800    0.0020719700
   0.0011248900    0.0108927000    0.0071592800
  -0.0017219100    0.0015939200    0.0017881300
   0.0023773300    0.0035788200    0.0010396700
   0.0075477600    0.0073237400   -0.0346653500
   0.0025126000   -0.0013003800   -0.0020719700
  -0.0025875100   -0.0031463000   -0.0009228900
   0.0005653100   -0.0018637300    0.0007812300
   0.0001312800   -0.0009155400    0.0002328400
  -0.0000600000   -0.0023326100    0.0016470400
  -0.0014950400    0.0015475200    0.0002208800
  -0.0002149000    0.0006232700   -0.0000080600
   0.0002332300    0.0009465800   -0.0010070100
   0.0053164000   -0.0049261400   -0.0026593100
  -0.0004991900   -0.0013551400    0.0005981000
   0.0011137900   -0.0082265200   -0.0007246500
  -0.0055802700    0.0037632500    0.0025508400
  -0.0000589900    0.0008925500    0.0003517200
  -0.0055416200    0.0206220300   -0.0076616900
   0.0011950100    0.0068102000   -0.0013577300
   0.0008610000    0.0017527800    0.0000062800
  -0.0087706400    0.0254724800    0.0178987100
  -0.0007544100   -0.0028403700    0.0002555300
  -0.0004040200   -0.0008983800    0.0001156400
  -0.0013770100   -0.0050620700    0.0001058800
   0.0004216100    0.0021900100    0.0004116600
   0.0002186900    0.0010618200    0.0000862500
   0.0046201400    0.0090948800    0.0023481900
  -0.0011601700   -0.0018014600    0.0004947000
  -0.0000457500   -0.0003849300   -0.0000370500
  -0.0010159800   -0.0028709800   -0.0000948900
   0.0037498000   -0.0000280500    0.0053155800
   0.0000852200    0.0003024600    0.0000047000
   0.0009739000    0.0027822000    0.0002579300
  -0.0016456500   -0.0016037100   -0.0009446000
   0.0000169600   -0.0004096600   -0.0000583900
  -0.0005467600   -0.0020108200   -0.0007059100
   0.0045358700    0.0045207700   -0.0036447600
   0.0001476700    0.0006848000    0.0001954700
   0.0267185000    0.0426672600    0.0180202600
  -0.0041855100   -0.0065335500    0.0014163700
   0.0001079000   -0.0006935200   -0.0000282000
  -0.0009188600   -0.0079871100    0.0010453100
   0.0059050400   -0.0027315500    0.0037162800
  -0.0007101200   -0.0000803600    0.0001133200
  -0.0067415700   -0.0050802700    0.0095471500
  -0.0042557200   -0.0024253600   -0.0038028600
   0.0007474800   -0.0006678600   -0.0000340700
   0.0051263800   -0.0067629200   -0.0045072500
   0.0006452200    0.0011954500    0.0000009100
  -0.0010404600   -0.0000964800   -0.0003865200
  -0.0012166300   -0.0017540500   -0.0052004500
  -0.0011563200   -0.0006524500    0.0004393600
   0.0005428600   -0.0004619500    0.0003537100
   0.0026372100   -0.0033571100    0.0045171900
   0.0012166300   -0.0017540500    0.0052004500
   0.0010404600   -0.0000964800    0.0003865200
  -0.0006452200    0.0011954500   -0.0000009100
  -0.0026372100   -0.0033571100   -0.0045171900
  -0.0005428600   -0.0004619500   -0.0003537100
   0.0011563200   -0.0006524500   -0.0004393600
   0.0067415700   -0.0050802700   -0.0095471500
   0.0007101200   -0.0000803600   -0.0001133200
  -0.0059050400   -0.0027315500   -0.0037162800
  -0.0051263800   -0.0067629200    0.0045072500
  -0.0007474800   -0.0006678600    0.0000340700
   0.0042557200   -0.0024253600    0.0038028600
  -0.0267185000    0.0426672600   -0.0180202600
  -0.0001476700    0.0006848000   -0.0001954700
  -0.0045358700    0.0045207700    0.0036447600
   0.0009188600   -0.0079871100   -0.0010453100
  -0.0001079000   -0.0006935200    0.0000282000
   0.0041855100   -0.0065335500   -0.0014163700
  -0.0009739000    0.0027822000   -0.0002579300
  -0.0000852200    0.0003024600   -0.0000047000
  -0.0037498000   -0.0000280500   -0.0053155800
   0.0005467600   -0.0020108200    0.0007059100
  -0.0000169600   -0.0004096600    0.0000583900
   0.0016456500   -0.0016037100    0.0009446000
  -0.0011137900   -0.0082265200    0.0007246500
   0.0004991900   -0.0013551400   -0.0005981000
  -0.0053164000   -0.0049261400    0.0026593100
   0.0055416200    0.0206220300    0.0076616900
   0.0000589900    0.0008925500   -0.0003517200
   0.0055802700    0.0037632500   -0.0025508400
   0.0000600000   -0.0023326100   -0.0016470400
  -0.0001312800   -0.0009155400   -0.0002328400
  -0.0005653100   -0.0018637300   -0.0007812300
  -0.0002332300    0.0009465800    0.0010070100
   0.0002149000    0.0006232700    0.0000080600
   0.0014950400    0.0015475200   -0.0002208800
  -0.0046201400    0.0090948800   -0.0023481900
  -0.0002186900    0.0010618200   -0.0000862500
  -0.0004216100    0.0021900100   -0.0004116600
   0.0010159800   -0.0028709800    0.0000948900
   0.0000457500   -0.0003849300    0.0000370500
   0.0011601700   -0.0018014600   -0.0004947000
   0.0087706400    0.0254724800   -0.0178987100
  -0.0008610000    0.0017527800   -0.0000062800
  -0.0011950100    0.0068102000    0.0013577300
   0.0013770100   -0.0050620700   -0.0001058800
   0.0004040200   -0.0008983800   -0.0001156400
   0.0007544100   -0.0028403700   -0.0002555300

1
  0.0000000000000000  -0.0100000000000000   0.0000000000000000
   0.0000000000    0.2095173000    0.0000000000
   0.0008862000    0.0061061300   -0.0007789900
  -0.0008862000    0.0061061300    0.0007789900
   0.0000000000   -0.0147543700    0.0000000000
  -0.0010749900   -0.0051953300   -0.0001082400
   0.0010749900   -0.0051953300    0.0001082400
   0.0000000000    0.0058473100    0.0000000000
   0.0009143700    0.0034931000    0.0010637400
  -0.0009143700    0.0034931000   -0.0010637400
   0.0000000000   -0.0057966200    0.0000000000
  -0.0005741100   -0.0023037500    0.0001244500
   0.0005741100   -0.0023037500   -0.0001244500
   0.0230838800   -0.0200660300   -0.0059435100
   0.0000000000    0.0007482600    0.0000000000
  -0.0230838800   -0.0200660300    0.0059435100
  -0.0273553500   -0.0198115200    0.0081032500
   0.0000000000    0.0009417400    0.0000000000
   0.0273553500   -0.0198115200   -0.0081032500
   0.0011762900   -0.0001020100    0.0023090700
   0.0000000000    0.0001087000    0.0000000000
  -0.0011762900   -0.0001020100   -0.0023090700
  -0.0030590900    0.0011410800   -0.0015709900
   0.0000000000    0.0011565000    0.0000000000
   0.0030590900    0.0011410800    0.0015709900
   0.0129691000    0.0145051300    0.0230830400
   0.0003262700    0.0010100000   -0.0001959000
  -0.0003104400    0.0153476000    0.0046462900
  -0.0016907400   -0.0084301700   -0.0017211700
  -0.0000534100   -0.0019900800   -0.0001130700
   0.0019759800   -0.0085610000   -0.0032561700
   0.0003104400    0.0153476000   -0.0046462900
  -0.0003262700    0.0010100000    0.0001959000
  -0.0129691000    0.0145051300   -0.0230830400
  -0.0019759800   -0.0085610000    0.0032561700
   0.0000534100   -0.0019900800    0.0001130700
   0.0016907400   -0.0084301700    0.0017211700
   0.0011791400   -0.0107975600    0.0072074300
   0.0023444700   -0.0034654900    0.0010500900
  -0.0016973900   -0.0014878300    0.0017750500
   0.0074183400   -0.0073045800   -0.0343396100
  -0.0026002700    0.0032113400   -0.0009034600
   0.0025295900    0.0013730600   -0.0020720100
  -0.0011791400   -0.0107975600   -0.0072074300
   0.0016973900   -0.0014878300   -0.0017750500
  -0.0023444700   -0.0034654900   -0.0010500900
  -0.0074183400   -0.0073045800    0.0343396100
  -0.0025295900    0.0013730600    0.0020720100
   0.0026002700    0.0032113400    0.0009034600
  -0.0008599500    0.0014671800   -0.0002872300
  -0.0004245300    0.0005579000    0.0002526300
  -0.0002683200    0.0019480500   -0.0011759300
   0.0011924800   -0.0019172400    0.0002696600
  -0.0000837000   -0.0009654000    0.0004923200
  -0.0005779700   -0.0012893300    0.0015060800
  -0.0055943700    0.0045173900    0.0031325100
   0.0002038200    0.0009933400   -0.0001075700
  -0.0014156900    0.0078172700    0.0012132200
   0.0052581000   -0.0041081500   -0.0020374000
  -0.0002391300   -0.0012339300    0.0001350100
   0.0041940800   -0.0197776600    0.0073965700
  -0.0009410100   -0.0060444800    0.0014203200
  -0.0005772200   -0.0010195300    0.0000650000
   0.0089279300   -0.0251233400   -0.0176271900
   0.0009842700    0.0035419500   -0.0001839300
   0.0006853300    0.0016171500   -0.0000454000
   0.0016497300    0.0057952300   -0.0000157900
  -0.0001677700   -0.0014545400   -0.0003409700
   0.0000612300   -0.0003323300   -0.0000139800
  -0.0043488800   -0.0083043000   -0.0022443800
   0.0013896300    0.0025077400   -0.0004146300
   0.0003273000    0.0011054500    0.0001078500
   0.0012855200    0.0035959600    0.0001959500
  -0.0035968400   -0.0001196900   -0.0052192000
   0.0000285700   -0.0004216000    0.0000604300
  -0.0008631700   -0.0029404600   -0.0001782400
   0.0017605400    0.0014605600    0.0009906700
   0.0000991100    0.0002911200    0.0001230900
   0.0006531800    0.0018681300    0.0007565500
  -0.0043889800   -0.0046714600    0.0037049400
  -0.0000338500   -0.0008014800   -0.0001291700
  -0.0286624200   -0.0442788300   -0.0192846400
   0.0042799400    0.0063538700   -0.0013473400
   0.0000106200    0.0005751200    0.0000943300
   0.0010373700    0.0077937400   -0.0009702300
  -0.0060048400    0.0020756100   -0.0036383100
   0.0005350100   -0.0005397200   -0.0000348800
   0.0067216700    0.0045290600   -0.0095536300
   0.0040912300    0.0018094400    0.0038521500
  -0.0009164500    0.0000514000    0.0001123400
  -0.0052127100    0.0061381700    0.0045683400
  -0.0007784100   -0.0018506200    0.0000627500
   0.0008604600   -0.0005217300    0.0004608700
   0.0011012600    0.0011155100    0.0052768400
   0.0010045900    0.0000427600   -0.0003627200
  -0.0007131200   -0.0001537600   -0.0002733000
  -0.0027572500    0.0027439600   -0.0043963600
  -0.0011012600    0.0011155100   -0.0052768400
  -0.0008604600   -0.0005217300   -0.0004608700
   0.0007784100   -0.0018506200   -0.0000627500
   0.0027572500    0.0027439600    0.0043963600
   0.0007131200   -0.0001537600    0.0002733000
  -0.0010045900    0.0000427600    0.0003627200
  -0.0067216700    0.0045290600    0.0095536300
  -0.0005350100   -0.0005397200    0.0000348800
   0.0060048400    0.0020756100    0.0036383100
   0.0052127100    0.0061381700   -0.0045683400
   0.0009164500    0.0000514000   -0.0001123400
  -0.0040912300    0.0018094400   -0.0038521500
   0.0286624200   -0.0442788300    0.0192846400
   0.0000338500   -0.0008014800    0.0001291700
   0.0043889800   -0.0046714600   -0.0037049400
  -0.0010373700    0.0077937400    0.0009702300
  -0.0000106200    0.0005751200   -0.0000943300
  -0.0042799400    0.0063538700    0.0013473400
   0.0008631700   -0.0029404600    0.0001782400
  -0.0000285700   -0.0004216000   -0.0000604300
   0.0035968400   -0.0001196900    0.0052192000
  -0.0006531800    0.0018681300   -0.0007565500
  -0.0000991100    0.0002911200   -0.0001230900
  -0.0017605400    0.0014605600   -0.0009906700
   0.0014156900    0.0078172700   -0.0012132200
  -0.0002038200    0.0009933400    0.0001075700
   0.0055943700    0.0045173900   -0.0031325100
  -0.0041940800   -0.0197776600   -0.0073965700
   0.0002391300   -0.0012339300   -0.0001350100
  -0.0052581000   -0.0041081500    0.0020374000
   0.0002683200    0.0019480500    0.0011759300
   0.0004245300    0.0005579000   -0.0002526300
   0.0008599500    0.0014671800    0.0002872300
   0.0005779700   -0.0012893300   -0.0015060800
   0.0000837000   -0.0009654000   -0.0004923200
  -0.0011924800   -0.0019172400   -0.0002696600
   0.0043488800   -0.0083043000    0.0022443800
  -0.0000612300   -0.0003323300    0.0000139800
   0.0001677700   -0.0014545400    0.0003409700
  -0.0012855200    0.0035959600   -0.0001959500
  -0.0003273000    0.0011054500   -0.0001078500
  -0.0013896300    0.0025077400    0.0004146300
  -0.0089279300   -0.0251233400    0.0176271900
   0.0005772200   -0.0010195300   -0.0000650000
   0.0009410100   -0.0060444800   -0.0014203200
  -0.0016497300    0.0057952300    0.0000157900
  -0.0006853300    0.0016171500    0.0000454000
  -0.0009842700    0.0035419500    0.0001839300

1
 -0.0000724750264154   0.0000000000000000   0.0099997373650784
  -0.0178610200   -0.0004494400   -0.2419711000
   0.0003108500   -0.0006607500   -0.0059994400
   0.0003118500    0.0009065700   -0.0060023800
  -0.0031438000    0.0001421900   -0.0073243300
   0.0010222700    0.0000342700   -0.0010618500
   0.0010092500    0.0002332300   -0.0010554400
  -0.0007601000    0.0001069800    0.0247345600
  -0.0000637900    0.0011842700    0.0052822000
  -0.0000818500   -0.0009393200    0.0052914600
   0.0003704700    0.0001342900    0.0040860800
   0.0001152600    0.0002636300    0.0015198800
   0.0000961100   -0.0000022200    0.0015266100
   0.0069735500   -0.0081163800   -0.0207730000
   0.0007782800    0.0007371400   -0.0014594400
   0.0070708300    0.0097119700   -0.0208765900
   0.0080681300    0.0071682800   -0.0204949800
   0.0006210800    0.0007345400   -0.0011655600
   0.0080791900   -0.0057259400   -0.0205067700
  -0.0003588200    0.0010500600    0.0086938900
  -0.0000945700    0.0007370400    0.0015943700
  -0.0003685600    0.0004128100    0.0087106100
  -0.0011667000   -0.0011387000    0.0076479600
  -0.0001384100    0.0007348200    0.0011175500
  -0.0011972000    0.0026336500    0.0076478300
   0.0238144500   -0.0058343400    0.0212111500
   0.0002228900   -0.0004846600   -0.0000780600
  -0.0317776900   -0.0216763500    0.0195443100
   0.0015833100    0.0015857200    0.0011999300
   0.0004624300   -0.0002596100   -0.0000115900
  -0.0034215000    0.0020151800    0.0009759500
  -0.0316288500    0.0205958800    0.0195171800
   0.0002251500   -0.0005609200   -0.0000742000
   0.0237338100    0.0046700600    0.0213207000
  -0.0034141900   -0.0030328100    0.0009807000
   0.0004625000   -0.0007797200   -0.0000066700
   0.0015828800   -0.0026086400    0.0012107400
   0.0009205200   -0.0078775400    0.0039134900
   0.0018392100   -0.0013854400    0.0011719500
  -0.0014952900   -0.0015999700   -0.0016412200
   0.0054885100    0.0360771400    0.0313750600
   0.0028378000    0.0011895100    0.0014324900
  -0.0026857300    0.0017537100   -0.0007256100
   0.0008839800    0.0079670000    0.0039266300
  -0.0015183700    0.0016892800   -0.0016162400
   0.0018692700    0.0014798300    0.0011663600
   0.0054545400   -0.0356162400    0.0311692400
  -0.0027053000   -0.0016690200   -0.0007081500
   0.0028600600   -0.0011111600    0.0014285100
   0.0001277600    0.0000352900   -0.0012436800
   0.0003661600    0.0000643700   -0.0003831400
   0.0004769800    0.0005736100   -0.0022005700
  -0.0004370800   -0.0006532100   -0.0018570500
   0.0005179000   -0.0002983800   -0.0006859400
   0.0023675800   -0.0025644900   -0.0100534900
  -0.0022447700    0.0004717700    0.0033139700
  -0.0009750800   -0.0002377200    0.0009360200
  -0.0000617100   -0.0038180000    0.0023914500
   0.0013654300    0.0026894700    0.0042735400
  -0.0009282800   -0.0000578700    0.0014739800
  -0.0058397900    0.0029099000    0.0200006900
  -0.0059960600   -0.0014615600    0.0018397000
   0.0002366600    0.0006232000    0.0008277500
  -0.0225992600    0.0143348500    0.0458538500
  -0.0007062800    0.0003503000    0.0004111200
  -0.0004577900    0.0002163900    0.0005816000
   0.0002409900    0.0014131100    0.0012463700
   0.0058540200    0.0029107300   -0.0041144200
  -0.0001137400    0.0000768600   -0.0008902100
  -0.0021508100   -0.0011985000   -0.0128742200
   0.0011435600    0.0004570700   -0.0005335100
   0.0000937400    0.0002420100   -0.0002909200
   0.0005511700    0.0001554600   -0.0012528900
  -0.0034236500    0.0012048900   -0.0064787500
   0.0001969300    0.0000005200   -0.0006151100
  -0.0011006100    0.0016645900   -0.0086735900
  -0.0005548900    0.0001753400   -0.0015979600
   0.0000392200   -0.0000554200   -0.0002737100
  -0.0000938800   -0.0005585600   -0.0015417200
   0.0030733100   -0.0024138000    0.0086357400
  -0.0002293200   -0.0001732900    0.0006590400
   0.0206009700    0.0200630100    0.0264938800
   0.0000374600   -0.0021338500    0.0028139500
  -0.0004384700   -0.0002546800    0.0001820400
   0.0007256100    0.0028567900    0.0017075800
  -0.0037472100    0.0033374300    0.0006178600
   0.0001966600   -0.0000489400    0.0004479500
   0.0058244300    0.0101826400    0.0037941500
  -0.0015472300   -0.0015005000   -0.0004110700
   0.0000858600   -0.0004554100    0.0002501000
   0.0061137600   -0.0084054700    0.0042975300
   0.0032863600   -0.0057354000   -0.0038750700
  -0.0007907800   -0.0003673000   -0.0005344200
  -0.0015391500   -0.0035548100   -0.0055349200
   0.0003328300    0.0001955100   -0.0007435800
  -0.0005116800   -0.0001867300   -0.0002819300
  -0.0020464200    0.0017707500   -0.0033325000
  -0.0014145300    0.0029388300   -0.0055960900
  -0.0006149700   -0.0002505600   -0.0006090500
   0.0034350800    0.0051248300   -0.0039387200
  -0.0019232200   -0.0023983100   -0.0034221600
  -0.0003403200   -0.0004310800   -0.0003586200
   0.0004829200   -0.0008142000   -0.0008093800
   0.0059102500   -0.0107020300    0.0036786400
   0.0003704000   -0.0005679300    0.0003676600
  -0.0036238200   -0.0039608600    0.0005287900
   0.0062284700    0.0077650100    0.0041953900
   0.0002573600   -0.0001616000    0.0001700700
  -0.0014033600    0.0008843400   -0.0004866600
   0.0213321900   -0.0209202900    0.0267158800
  -0.0003434900    0.0000564700    0.0005945300
   0.0029408200    0.0022922600    0.0086133400
   0.0006200200   -0.0030020900    0.0016524600
  -0.0005535600    0.0001371400    0.0001179300
  -0.0000810700    0.0019897300    0.0027621900
  -0.0012364900   -0.0017826500   -0.0087324400
   0.0000789300   -0.0001166700   -0.0006824700
  -0.0035588200   -0.0013470400   -0.0065659300
  -0.0002012800    0.0004100400   -0.0016009400
  -0.0000782600   -0.0000621100   -0.0003405400
  -0.0006754500   -0.0003229100   -0.0016582300
   0.0002574900    0.0034136300    0.0019179900
  -0.0006784200   -0.0001168700    0.0004496700
  -0.0019763500   -0.0008738700    0.0028491600
  -0.0053380700   -0.0031173100    0.0195244300
  -0.0006299500   -0.0002887000    0.0009867400
   0.0016671000   -0.0030721600    0.0037915000
   0.0008131900   -0.0009462700   -0.0026834600
   0.0006604200   -0.0004173400   -0.0008695400
   0.0004290100   -0.0004204300   -0.0017404800
   0.0026849500    0.0021699800   -0.0105382800
   0.0008122500   -0.0000499400   -0.0011716800
  -0.0001257700    0.0002744300   -0.0023538200
  -0.0024669800    0.0019498600   -0.0130205000
  -0.0003960100    0.0006498800   -0.0009577500
   0.0056140900   -0.0021915200   -0.0041828200
   0.0002791400    0.0005746400   -0.0013436000
  -0.0001887200    0.0004815400   -0.0003597400
   0.0009072800    0.0002567200   -0.0006060900
  -0.0204397900   -0.0127880500    0.0425897900
  -0.0000448700    0.0001049100    0.0007535700
  -0.0062510600    0.0022006100    0.0017627700
  -0.0000225700   -0.0006802400    0.0011428500
  -0.0007353500    0.0005040300    0.0005082100
  -0.0009469100    0.0003622800    0.0003351800

13
  0.0099999975103145   0.0000000000000000  -0.0000070564653367
   0.0137875000   -0.0228741100    0.0071413400
   0.0137757400    0.0232370400    0.0071310700
   0.0076678300    0.0001322900    0.0008378400
   0.0133835600    0.0275761700    0.0081980400
   0.0133743500   -0.0274179200    0.0081702500
   0.0076345600    0.0001232000    0.0006811100
  -0.0022413600   -0.0010445100   -0.0003869900
  -0.0022594600    0.0013015000   -0.0003889300
   0.0057085000    0.0001296600   -0.0000512600
  -0.0007535800    0.0031902900   -0.0011950600
  -0.0007676500   -0.0029304500   -0.0011947600
   0.0054582400    0.0001272000   -0.0000965900
  -0.2287116400    0.0021597200    0.0230885600
   0.0145788800    0.0019749800    0.0000364300
   0.0145240900   -0.0004965800    0.0000367200
  -0.0127142100    0.0007337400    0.0038677700
   0.0049781000   -0.0002346000   -0.0011617400
   0.0049885800    0.0016998700   -0.0011614800
  -0.0134498100    0.0007347000   -0.0016467100
   0.0046068900    0.0007659000    0.0010052600
   0.0046197400    0.0007045200    0.0010077300
  -0.0050977500    0.0007328600    0.0001055200
   0.0023165800    0.0001096900   -0.0003317100
   0.0023299000    0.0013574100   -0.0003323700
  -0.0379342100    0.0092793800   -0.0067340900
   0.0061846700    0.0025923700    0.0033260200
   0.0066822800   -0.0036050600   -0.0043264100
  -0.0168741500    0.0008910600   -0.0009126500
   0.0050461000   -0.0021363000    0.0026972700
   0.0060771900    0.0028480400   -0.0028287300
  -0.0379533900   -0.0104068000   -0.0066267700
   0.0066770000    0.0025843600   -0.0043374900
   0.0061930700   -0.0036266200    0.0033023000
  -0.0168534200   -0.0019096400   -0.0009026200
   0.0060684200   -0.0038986300   -0.0028318600
   0.0050543100    0.0010851500    0.0026854000
   0.0138445000    0.0017185500   -0.0281254300
   0.0131178000   -0.0109874100    0.0197351100
   0.0062637100   -0.0002310000    0.0000499400
  -0.0015847700   -0.0016395800   -0.0028681100
  -0.0014008500    0.0013481800    0.0020621900