90   
8    

1    
  0.0100000000000000   0.0000000000000000   0.0000000000000000
  -0.0466517000   -0.0004733900    0.0014959900
   0.0020571500   -0.0007922200    0.0015186700
   0.0020473400    0.0007903800    0.0008690200
  -0.0005593100   -0.0022976600    0.0002824600
  -0.0005538200    0.0022977700    0.0021043700
   0.0005131600   -0.0000025400    0.0011945500
  -0.0005581900   -0.0007178300    0.0006083800
   0.0005129300   -0.0000015900    0.0011961300
  -0.0005550200    0.0007125700    0.0017806500
   0.0001898600   -0.0000018900    0.0011944000
  -0.0000843900    0.0001037800    0.0010759000
  -0.0000837800   -0.0001076900    0.0013137100
   0.0000086100    0.0001567200    0.0013503900
   0.0000087500   -0.0001617900    0.0010383400
   0.0000368900   -0.0000020000    0.0011952700
   0.0000084200   -0.0000540800    0.0012319400
   0.0000368800   -0.0000019200    0.0011945300
   0.0000090400    0.0000501700    0.0011577600
   0.0026115800   -0.0019596400   -0.0063397400
   0.0026464400    0.0020047600    0.0040080300
   0.0003445600    0.0000025800   -0.0011972200
   0.0002288200   -0.0000642600   -0.0014533100
  -0.0004501300    0.0000019600   -0.0011951200
   0.0002292900    0.0000690700   -0.0009385700
  -0.0008035400    0.0000109800   -0.0012022700
  -0.0000246300   -0.0002442500   -0.0011150500
  -0.0000240500    0.0002475700   -0.0012753100
  -0.0000854300    0.0001218700   -0.0007948800
  -0.0000857400   -0.0001184500   -0.0015974300
   0.0002102200    0.0000025200   -0.0011952000
   0.0002124500    0.0000038400   -0.0012312600
  -0.0004258700    0.0000019700   -0.0011952500
   0.0002138800    0.0000006100   -0.0011590300
   0.0001224200    0.0000021200   -0.0011954500
  -0.0000817800   -0.0001967600   -0.0012215000
  -0.0000808500    0.0002010100   -0.0011691400
   0.0025372200    0.0000012900   -0.0046261400
  -0.0004645200    0.0002486000   -0.0052986400
  -0.0004632100   -0.0002520300   -0.0038772700
   0.0001068000    0.0004988000   -0.0038111200
   0.0001075900   -0.0005048100   -0.0053666400
  -0.0002326800   -0.0000021800   -0.0045863700
   0.0000405500    0.0001158900   -0.0045193600
  -0.0000219300   -0.0000020000   -0.0045873100
   0.0000385700   -0.0001207300   -0.0046533200
   0.0004402600   -0.0000013800   -0.0045875600
  -0.0002138200    0.0001805900   -0.0040750600
  -0.0002129900   -0.0001850800   -0.0050981000
   0.0002053000    0.0002405300   -0.0051623700
   0.0002032400   -0.0002457200   -0.0040082500
  -0.0004816800   -0.0000016700   -0.0045877300
   0.0000484900    0.0001467700   -0.0046525100
   0.0000030000   -0.0000019600   -0.0045866700
   0.0000468100   -0.0001506900   -0.0045215700
   0.0173620800   -0.0088900700    0.0116510700
   0.0178825900    0.0092721600   -0.0027488200
  -0.0012146300    0.0000000000    0.0045874700
  -0.0002237000    0.0005749600    0.0046897700
   0.0005999700   -0.0000010400    0.0045858500
  -0.0002254200   -0.0005682800    0.0044835200
   0.0018951000    0.0000581900    0.0045999300
  -0.0002498600    0.0004929100    0.0045834500
  -0.0002482000   -0.0004874400    0.0045891400
   0.0001559900   -0.0001530400    0.0043191500
   0.0001579200    0.0001581900    0.0048531200
  -0.0002333600    0.0000017900    0.0045857100
  -0.0001859500    0.0000288400    0.0046128900
   0.0003262600    0.0000021600    0.0045861000
  -0.0001870700   -0.0000252700    0.0045591900
  -0.0001125400    0.0000010300    0.0045864000
   0.0000885800    0.0001395900    0.0046645500
   0.0000877500   -0.0001352900    0.0045068200
   0.0007302900    0.0022928500    0.0022812000
   0.0007363300   -0.0023047400   -0.0023058400
   0.0002333200    0.0000013800   -0.0000003100
   0.0012757800   -0.0002567700    0.0009058500
  -0.0032481900   -0.0000049200    0.0000023000
   0.0012797600    0.0002560100   -0.0009025000
   0.0008337300   -0.0000007400   -0.0000002300
  -0.0002334900   -0.0002690600   -0.0000951200
  -0.0002310500    0.0002685200    0.0000933500
  -0.0002001500   -0.0000632800   -0.0001411500
  -0.0002041000    0.0000630800    0.0001399300
   0.0003274200   -0.0000002500    0.0000000400
   0.0001493200   -0.0000397700   -0.0002180600
  -0.0000928400   -0.0000016000   -0.0000003200
   0.0001493600    0.0000399300    0.0002178900
   0.0000804400    0.0000004800   -0.0000005100
  -0.0000448500   -0.0002142000   -0.0001194800
  -0.0000440400    0.0002151200    0.0001188600

1    
  0.0000000000000000   0.0000000000000000   0.0100000000000000
   0.0000000000    0.0000000000   -0.0388938700
  -0.0003257100    0.0008646000    0.0004986500
   0.0003257100    0.0008646000    0.0004986500
  -0.0005859200   -0.0007143700    0.0004986500
   0.0005859200   -0.0007143700    0.0004986500
   0.0000000000    0.0000000000    0.0008636900
  -0.0009116200   -0.0001502300    0.0004986500
   0.0000000000    0.0000000000    0.0008638900
   0.0009116200   -0.0001502300    0.0004986500
   0.0000000000    0.0000000000    0.0024037000
   0.0001191100   -0.0001113000    0.0012812900
  -0.0001191100   -0.0001113000    0.0012812900
   0.0000368300    0.0001588000    0.0012812900
  -0.0000368300    0.0001588000    0.0012812900
   0.0000000000    0.0000000000    0.0013176400
   0.0001559400   -0.0000475000    0.0012812900
   0.0000000000    0.0000000000    0.0013173400
  -0.0001559400   -0.0000475000    0.0012812900
  -0.0051958700    0.0029998400   -0.0010908800
   0.0051958700    0.0029998400   -0.0010908800
   0.0000000000    0.0002984900   -0.0017692400
  -0.0002585000   -0.0001492500   -0.0017692400
   0.0000000000    0.0000926600   -0.0014687900
   0.0002585000   -0.0001492500   -0.0017692400
   0.0000000000   -0.0059996700   -0.0010908800
   0.0000802500   -0.0000463300   -0.0014687900
  -0.0000802500   -0.0000463300   -0.0014687900
   0.0003983000   -0.0002299600   -0.0008930600
  -0.0003983000   -0.0002299600   -0.0008930600
   0.0000000000    0.0000421100   -0.0010634200
  -0.0000364700   -0.0000210600   -0.0010634200
   0.0000000000   -0.0000303400   -0.0010648900
   0.0000364700   -0.0000210600   -0.0010634200
   0.0000000000    0.0004599200   -0.0008930600
  -0.0000262800    0.0000151700   -0.0010648900
   0.0000262800    0.0000151700   -0.0010648900
   0.0000000000    0.0000000000    0.0136356000
  -0.0005458400   -0.0002317500   -0.0040589600
   0.0005458400   -0.0002317500   -0.0040589600
   0.0004736300   -0.0003568400   -0.0040589600
  -0.0004736300   -0.0003568400   -0.0040589600
   0.0000000000    0.0000000000   -0.0043212300
  -0.0000722200    0.0005885900   -0.0040589600
   0.0000000000    0.0000000000   -0.0044103400
   0.0000722200    0.0005885900   -0.0040589600
   0.0000000000    0.0000000000   -0.0059475400
  -0.0000590300    0.0001376200   -0.0048277600
   0.0000590300    0.0001376200   -0.0048277600
  -0.0000896600   -0.0001199300   -0.0048277600
   0.0000896600   -0.0001199300   -0.0048277600
   0.0000000000    0.0000000000   -0.0047612200
  -0.0001487000   -0.0000176800   -0.0048277600
   0.0000000000    0.0000000000   -0.0048063800
   0.0001487000   -0.0000176800   -0.0048277600
   0.0075709600   -0.0043711000    0.0090131600
  -0.0075709600   -0.0043711000    0.0090131600
   0.0000000000   -0.0002633700    0.0047286200
   0.0002280900    0.0001316900    0.0047286200
   0.0000000000    0.0002752700    0.0047282300
  -0.0002280900    0.0001316900    0.0047286200
   0.0000000000    0.0087421900    0.0090131600
   0.0002383900   -0.0001376300    0.0047282300
  -0.0002383900   -0.0001376300    0.0047282300
   0.0001665500   -0.0000961600    0.0037501700
  -0.0001665500   -0.0000961600    0.0037501700
   0.0000000000   -0.0000180200    0.0044992400
   0.0000156100    0.0000090100    0.0044992400
   0.0000000000   -0.0002281600    0.0044049400
  -0.0000156100    0.0000090100    0.0044992400
   0.0000000000    0.0001923100    0.0037501700
  -0.0001975900    0.0001140800    0.0044049400
   0.0001975900    0.0001140800    0.0044049400
   0.0019405300    0.0011203700    0.0020423400
  -0.0019405300    0.0011203700    0.0020423400
   0.0000000000    0.0000988000    0.0003206900
   0.0000716100   -0.0000413500    0.0009276600
   0.0000000000   -0.0022407300    0.0020423400
  -0.0000716100   -0.0000413500    0.0009276600
   0.0000000000    0.0000826900    0.0009276600
  -0.0000855600   -0.0000494000    0.0003206900
   0.0000855600   -0.0000494000    0.0003206900
  -0.0016950700   -0.0009786500    0.0012764300
   0.0016950700   -0.0009786500    0.0012764300
   0.0000000000   -0.0000876000    0.0001396100
  -0.0000775100    0.0000447500   -0.0000210000
   0.0000000000    0.0019573000    0.0012764300
   0.0000775100    0.0000447500   -0.0000210000
   0.0000000000   -0.0000895100   -0.0000210000
   0.0000758600    0.0000438000    0.0001396100
  -0.0000758600    0.0000438000    0.0001396100

1    
  0.0000000000000000   0.0000000000000000  -0.0100000000000000
   0.0000000000    0.0000000000    0.0406134700
   0.0003231600   -0.0008621800    0.0018818900
  -0.0003231600   -0.0008621800    0.0018818900
   0.0005850900    0.0007109500    0.0018818900
  -0.0005850900    0.0007109500    0.0018818900
   0.0000000000    0.0000000000    0.0015212700
   0.0009082400    0.0001512300    0.0018818900
   0.0000000000    0.0000000000    0.0015212300
  -0.0009082400    0.0001512300    0.0018818900
   0.0000000000    0.0000000000   -0.0000342600
  -0.0001186400    0.0001117600    0.0011058900
   0.0001186400    0.0001117600    0.0011058900
  -0.0000374700   -0.0001586200    0.0011058900
   0.0000374700   -0.0001586200    0.0011058900
   0.0000000000    0.0000000000    0.0010697200
  -0.0001561000    0.0000468600    0.0011058900
   0.0000000000    0.0000000000    0.0010692100
   0.0001561000    0.0000468600    0.0011058900
   0.0051525800   -0.0029748400   -0.0012971200
  -0.0051525800   -0.0029748400   -0.0012971200
   0.0000000000   -0.0002964100   -0.0006286000
   0.0002567000    0.0001482100   -0.0006286000
   0.0000000000   -0.0000923000   -0.0009274600
  -0.0002567000    0.0001482100   -0.0006286000
   0.0000000000    0.0059496800   -0.0012971200
  -0.0000799400    0.0000461500   -0.0009274600
   0.0000799400    0.0000461500   -0.0009274600
  -0.0004044300    0.0002335000   -0.0015012900
   0.0004044300    0.0002335000   -0.0015012900
   0.0000000000   -0.0000413300   -0.0013307900
   0.0000358000    0.0000206700   -0.0013307900
   0.0000000000    0.0000302400   -0.0013284200
  -0.0000358000    0.0000206700   -0.0013307900
   0.0000000000   -0.0004670000   -0.0015012900
   0.0000261900   -0.0000151200   -0.0013284200
  -0.0000261900   -0.0000151200   -0.0013284200
   0.0000000000    0.0000000000   -0.0219420000
   0.0005424900    0.0002314500   -0.0051167500
  -0.0005424900    0.0002314500   -0.0051167500
  -0.0004716900    0.0003540900   -0.0051167500
   0.0004716900    0.0003540900   -0.0051167500
   0.0000000000    0.0000000000   -0.0048543300
   0.0000708000   -0.0005855400   -0.0051167500
   0.0000000000    0.0000000000   -0.0047654000
  -0.0000708000   -0.0005855400   -0.0051167500
   0.0000000000    0.0000000000   -0.0032079800
   0.0000573000   -0.0001384700   -0.0043496400
  -0.0000573000   -0.0001384700   -0.0043496400
   0.0000912700    0.0001188600   -0.0043496400
  -0.0000912700    0.0001188600   -0.0043496400
   0.0000000000    0.0000000000   -0.0044170700
   0.0001485700    0.0000196100   -0.0043496400
   0.0000000000    0.0000000000   -0.0043712800
  -0.0001485700    0.0000196100   -0.0043496400
  -0.0076091600    0.0043931500    0.0002067700
   0.0076091600    0.0043931500    0.0002067700
   0.0000000000    0.0002615700    0.0044430100
  -0.0002265200   -0.0001307800    0.0044430100
   0.0000000000   -0.0002745100    0.0044422700
   0.0002265200   -0.0001307800    0.0044430100
   0.0000000000   -0.0087863000    0.0002067700
  -0.0002377400    0.0001372600    0.0044422700
   0.0002377400    0.0001372600    0.0044422700
  -0.0001654200    0.0000955000    0.0054231800
   0.0001654200    0.0000955000    0.0054231800
   0.0000000000    0.0000177000    0.0046693500
  -0.0000153300   -0.0000088500    0.0046693500
   0.0000000000    0.0002276400    0.0047635700
   0.0000153300   -0.0000088500    0.0046693500
   0.0000000000   -0.0001910100    0.0054231800
   0.0001971400   -0.0001138200    0.0047635700
  -0.0001971400   -0.0001138200    0.0047635700
  -0.0019723100   -0.0011387100   -0.0020628700
   0.0019723100   -0.0011387100   -0.0020628700
   0.0000000000   -0.0000984500   -0.0003227900
  -0.0000726800    0.0000419600   -0.0009283400
   0.0000000000    0.0022774300   -0.0020628700
   0.0000726800    0.0000419600   -0.0009283400
   0.0000000000   -0.0000839300   -0.0009283400
   0.0000852600    0.0000492300   -0.0003227900
  -0.0000852600    0.0000492300   -0.0003227900
   0.0016986500    0.0009807100   -0.0012741800
  -0.0016986500    0.0009807100   -0.0012741800
   0.0000000000    0.0000870900   -0.0001418500
   0.0000770000   -0.0000444600    0.0000186000
   0.0000000000   -0.0019614300   -0.0012741800
  -0.0000770000   -0.0000444600    0.0000186000
   0.0000000000    0.0000889200    0.0000186000
  -0.0000754200   -0.0000435400   -0.0001418500
   0.0000754200   -0.0000435400   -0.0001418500

37   
  0.0100000000000000   0.0000000000000000   0.0000000000000000
   0.0025414400   -0.0000015700    0.0012322400
  -0.0004625200    0.0001693100    0.0017403600
  -0.0004636600   -0.0001745100    0.0006552000
   0.0000408700    0.0005403200    0.0011245100
   0.0000412300   -0.0005422500    0.0012676000
  -0.0000215700   -0.0000028200    0.0011973100
   0.0001098300    0.0000776400    0.0016693200
  -0.0002332900   -0.0000026000    0.0011977100
   0.0001079700   -0.0000818600    0.0007260300
   0.0004421700   -0.0000025400    0.0011971100
  -0.0002128300    0.0000000200    0.0012547500
  -0.0002136200   -0.0000049600    0.0011392300
   0.0000481500    0.0003317200    0.0010484600
   0.0000475200   -0.0003352400    0.0013455800
   0.0000047400   -0.0000025700    0.0011974500
   0.0002049800    0.0000562600    0.0011053000
  -0.0004795600   -0.0000013500    0.0011962600
   0.0002042800   -0.0000604900    0.0012867100
   0.0173629000   -0.0088841500    0.0062533700
   0.0178833000    0.0092796300   -0.0089185700
  -0.0012138300   -0.0000008000   -0.0011954500
  -0.0002252800    0.0005733900   -0.0009684600
   0.0005989500    0.0000036100   -0.0011981000
  -0.0002228000   -0.0005693500   -0.0014257800
   0.0018951700    0.0000479300   -0.0011832000
  -0.0002490600    0.0004937500   -0.0009555500
  -0.0002492000   -0.0004850500   -0.0014357500
   0.0001576600   -0.0001519300   -0.0010307300
   0.0001582200    0.0001551800   -0.0013633800
  -0.0002319600    0.0000021800   -0.0011986400
  -0.0001843800    0.0000295800   -0.0011818600
   0.0003285400    0.0000020000   -0.0011974200
  -0.0001847400   -0.0000246100   -0.0012132100
  -0.0001087500    0.0000029400   -0.0011984100
   0.0000909000    0.0001397800   -0.0013943100
   0.0000900800   -0.0001348300   -0.0010010800
  -0.0652795900   -0.0002839300   -0.0045503000
   0.0042911700    0.0002782600   -0.0046811200
   0.0042703000   -0.0002795200   -0.0045026200
   0.0005353600   -0.0018857200   -0.0046546900
   0.0005347100    0.0018815600   -0.0045295700
   0.0001014700   -0.0000016600   -0.0045917500
   0.0005329100   -0.0024448800   -0.0047430700
   0.0001014700   -0.0000025100   -0.0045915200
   0.0005371600    0.0024382600   -0.0044398100
  -0.0001681900   -0.0000017900   -0.0045910100
   0.0004197700   -0.0002335900   -0.0046564600
   0.0004204600    0.0002295400   -0.0045249500
  -0.0001186000   -0.0005431700   -0.0045560000
  -0.0001184200    0.0005415900   -0.0046274100
   0.0001619300   -0.0000016200   -0.0045906100
  -0.0001199700   -0.0000807700   -0.0046206900
   0.0001620300   -0.0000021500   -0.0045909000
  -0.0001170900    0.0000780300   -0.0045606700
   0.0006117700   -0.0008254600    0.0069050500
   0.0006074900    0.0008311400    0.0022748300
   0.0002962500    0.0000022500    0.0045902900
   0.0000852400   -0.0001198400    0.0044469900
  -0.0001663800    0.0000014500    0.0045914000
   0.0000850800    0.0001237600    0.0047353300
  -0.0008248400    0.0000052200    0.0045971400
   0.0001785000   -0.0001977200    0.0043456100
   0.0001796200    0.0002013300    0.0048362900
   0.0000203900   -0.0003631800    0.0034879200
   0.0000199800    0.0003659900    0.0056960600
   0.0001059800    0.0000024500    0.0045921900
   0.0000379400   -0.0000374800    0.0046276200
  -0.0000411500    0.0000006500    0.0045896100
   0.0000375000    0.0000412100    0.0045553800
  -0.0006111800    0.0000025200    0.0045884700
   0.0009471400   -0.0005693200    0.0050092200
   0.0009461300    0.0005711400    0.0041722400
   0.0001409700   -0.0005455600   -0.0002881800
   0.0001435500    0.0005465100    0.0002853800
  -0.0003366300   -0.0000002200   -0.0000005300
  -0.0005400300    0.0002689200   -0.0001408500
   0.0010884800    0.0000002500   -0.0000000800
  -0.0005387700   -0.0002675700    0.0001387500
  -0.0000745100   -0.0000021400   -0.0000009900
   0.0000069400    0.0001977700    0.0001394100
   0.0000057400   -0.0001985000   -0.0001404300
   0.0071655900    0.0035968000   -0.0040604300
   0.0073616900   -0.0037456400    0.0042641800
  -0.0012747700    0.0000007800   -0.0000008600
  -0.0000262900    0.0003470900    0.0002876800
   0.0009054700   -0.0000161700   -0.0000084100
  -0.0000237900   -0.0003482200   -0.0002893000
   0.0005770800    0.0000000100   -0.0000006000
  -0.0003223300    0.0005507300    0.0000174300
  -0.0003226100   -0.0005486700   -0.0000152400

37   
  0.0000000000000000   0.0000000000000000   0.0100000000000000
   0.0000000000    0.0000000000    0.0185549600
   0.0007112000   -0.0004877000    0.0017252200
  -0.0007112000   -0.0004877000    0.0017252200
   0.0000667600    0.0008597700    0.0017252200
  -0.0000667600    0.0008597700    0.0017252200
   0.0000000000    0.0000000000    0.0013726500
   0.0007779600   -0.0003720600    0.0017252200
   0.0000000000    0.0000000000    0.0014619000
  -0.0007779600   -0.0003720600    0.0017252200
   0.0000000000    0.0000000000   -0.0001772600
  -0.0005118300    0.0003711200    0.0009554800
   0.0005118300    0.0003711200    0.0009554800
  -0.0000654800   -0.0006288200    0.0009554800
   0.0000654800   -0.0006288200    0.0009554800
   0.0000000000    0.0000000000    0.0009769700
  -0.0005773200    0.0002577000    0.0009554800
   0.0000000000    0.0000000000    0.0010217400
   0.0005773200    0.0002577000    0.0009554800
   0.0071759000   -0.0041430000    0.0032372700
  -0.0071759000   -0.0041430000    0.0032372700
   0.0000000000   -0.0001200900   -0.0010507300
   0.0001040000    0.0000600400   -0.0010507300
   0.0000000000   -0.0000037600   -0.0010501900
  -0.0001040000    0.0000600400   -0.0010507300
   0.0000000000    0.0082860100    0.0032372700
  -0.0000032600    0.0000018800   -0.0010501900
   0.0000032600    0.0000018800   -0.0010501900
  -0.0002670000    0.0001541500   -0.0020283000
   0.0002670000    0.0001541500   -0.0020283000
   0.0000000000   -0.0000308400   -0.0012789100
   0.0000267100    0.0000154200   -0.0012789100
   0.0000000000    0.0000917700   -0.0013719100
  -0.0000267100    0.0000154200   -0.0012789100
   0.0000000000   -0.0003083000   -0.0020283000
   0.0000794800   -0.0000458900   -0.0013719100
  -0.0000794800   -0.0000458900   -0.0013719100
   0.0000000000    0.0000000000   -0.0580732400
   0.0000886100    0.0001242200   -0.0052261300
  -0.0000886100    0.0001242200   -0.0052261300
  -0.0001518900    0.0000146300   -0.0052261300
   0.0001518900    0.0000146300   -0.0052261300
   0.0000000000    0.0000000000   -0.0047483600
  -0.0000632800   -0.0001388500   -0.0052261300
   0.0000000000    0.0000000000   -0.0047483700
   0.0000632800   -0.0001388500   -0.0052261300
   0.0000000000    0.0000000000   -0.0039614500
   0.0000650700   -0.0000035100   -0.0038594200
  -0.0000650700   -0.0000035100   -0.0038594200
  -0.0000295000    0.0000581000   -0.0038594200
   0.0000295000    0.0000581000   -0.0038594200
   0.0000000000    0.0000000000   -0.0042860600
   0.0000355700   -0.0000546000   -0.0038594200
   0.0000000000    0.0000000000   -0.0042861700
  -0.0000355700   -0.0000546000   -0.0038594200
   0.0023119900   -0.0013348300    0.0070189600
  -0.0023119900   -0.0013348300    0.0070189600
   0.0000000000    0.0001662800    0.0043753200
  -0.0001440000   -0.0000831400    0.0043753200
   0.0000000000   -0.0002833700    0.0045725600
   0.0001440000   -0.0000831400    0.0043753200
   0.0000000000    0.0026696600    0.0070189600
  -0.0002454000    0.0001416800    0.0045725600
   0.0002454000    0.0001416800    0.0045725600
  -0.0011076400    0.0006395000    0.0063912300
   0.0011076400    0.0006395000    0.0063912300
   0.0000000000   -0.0000419900    0.0046709600
   0.0000363700    0.0000210000    0.0046709600
   0.0000000000    0.0004821700    0.0051210400
  -0.0000363700    0.0000210000    0.0046709600
   0.0000000000   -0.0012789900    0.0063912300
   0.0004175700   -0.0002410900    0.0051210400
  -0.0004175700   -0.0002410900    0.0051210400
  -0.0005370600   -0.0003100700   -0.0008716000
   0.0005370600   -0.0003100700   -0.0008716000
   0.0000000000   -0.0000067400   -0.0001758100
  -0.0005942200    0.0003430700   -0.0004827600
   0.0000000000    0.0006201400   -0.0008716000
   0.0005942200    0.0003430700   -0.0004827600
   0.0000000000   -0.0006861400   -0.0004827600
   0.0000058400    0.0000033700   -0.0001758100
  -0.0000058400    0.0000033700   -0.0001758100
  -0.0047103800   -0.0027195400    0.0041750800
   0.0047103800   -0.0027195400    0.0041750800
   0.0000000000   -0.0000664400    0.0001141400
   0.0002282700   -0.0001317900    0.0004075600
   0.0000000000    0.0054390800    0.0041750800
  -0.0002282700   -0.0001317900    0.0004075600
   0.0000000000    0.0002635900    0.0004075600
   0.0000575400    0.0000332200    0.0001141400
  -0.0000575400    0.0000332200    0.0001141400

37   
  0.0000000000000000   0.0000000000000000  -0.0100000000000000
   0.0000000000    0.0000000000   -0.0170336400
  -0.0007102800    0.0004877200    0.0006644300
   0.0007102800    0.0004877200    0.0006644300
  -0.0000672400   -0.0008589800    0.0006644300
   0.0000672400   -0.0008589800    0.0006644300
   0.0000000000    0.0000000000    0.0010173700
  -0.0007775200    0.0003712600    0.0006644300
   0.0000000000    0.0000000000    0.0009282500
   0.0007775200    0.0003712600    0.0006644300
   0.0000000000    0.0000000000    0.0025653300
   0.0005118700   -0.0003709400    0.0014339700
  -0.0005118700   -0.0003709400    0.0014339700
   0.0000653100    0.0006287600    0.0014339700
  -0.0000653100    0.0006287600    0.0014339700
   0.0000000000    0.0000000000    0.0014134500
   0.0005771800   -0.0002578200    0.0014339700
   0.0000000000    0.0000000000    0.0013675700
  -0.0005771800   -0.0002578200    0.0014339700
  -0.0072213700    0.0041692600   -0.0055690300
   0.0072213700    0.0041692600   -0.0055690300
   0.0000000000    0.0001202900   -0.0013404700
  -0.0001041800   -0.0000601500   -0.0013404700
   0.0000000000    0.0000035500   -0.0013402900
   0.0001041800   -0.0000601500   -0.0013404700
   0.0000000000   -0.0083385200   -0.0055690300
   0.0000030800   -0.0000017800   -0.0013402900
  -0.0000030800   -0.0000017800   -0.0013402900
   0.0002658600   -0.0001534900   -0.0003592600
  -0.0002658600   -0.0001534900   -0.0003592600
   0.0000000000    0.0000313500   -0.0011111200
  -0.0000271500   -0.0000156700   -0.0011111200
   0.0000000000   -0.0000916000   -0.0010177100
   0.0000271500   -0.0000156700   -0.0011111200
   0.0000000000    0.0003069900   -0.0003592600
  -0.0000793300    0.0000458000   -0.0010177100
   0.0000793300    0.0000458000   -0.0010177100
   0.0000000000    0.0000000000    0.0494790700
  -0.0000899200   -0.0001229900   -0.0039474000
   0.0000899200   -0.0001229900   -0.0039474000
   0.0001514700   -0.0000163800   -0.0039474000
  -0.0001514700   -0.0000163800   -0.0039474000
   0.0000000000    0.0000000000   -0.0044243600
   0.0000615500    0.0001393700   -0.0039474000
   0.0000000000    0.0000000000   -0.0044242800
  -0.0000615500    0.0001393700   -0.0039474000
   0.0000000000    0.0000000000   -0.0052147100
  -0.0000665400    0.0000033400   -0.0053119500
   0.0000665400    0.0000033400   -0.0053119500
   0.0000303800   -0.0000593000   -0.0053119500
  -0.0000303800   -0.0000593000   -0.0053119500
   0.0000000000    0.0000000000   -0.0048865400
  -0.0000361600    0.0000559600   -0.0053119500
   0.0000000000    0.0000000000   -0.0048864900
   0.0000361600    0.0000559600   -0.0053119500
  -0.0023178800    0.0013382300    0.0021410200
   0.0023178800    0.0013382300    0.0021410200
   0.0000000000   -0.0001666800    0.0047983000
   0.0001443500    0.0000833400    0.0047983000
   0.0000000000    0.0002830700    0.0046007000
  -0.0001443500    0.0000833400    0.0047983000
   0.0000000000   -0.0026764600    0.0021410200
   0.0002451500   -0.0001415400    0.0046007000
  -0.0002451500   -0.0001415400    0.0046007000
   0.0011008200   -0.0006355600    0.0027886500
  -0.0011008200   -0.0006355600    0.0027886500
   0.0000000000    0.0000415400    0.0045023700
  -0.0000359800   -0.0000207700    0.0045023700
   0.0000000000   -0.0004843100    0.0040525200
   0.0000359800   -0.0000207700    0.0045023700
   0.0000000000    0.0012711200    0.0027886500
  -0.0004194200    0.0002421500    0.0040525200
   0.0004194200    0.0002421500    0.0040525200
   0.0005347400    0.0003087300    0.0008687300
  -0.0005347400    0.0003087300    0.0008687300
   0.0000000000    0.0000067500    0.0001762400
   0.0005915500   -0.0003415300    0.0004814000
   0.0000000000   -0.0006174700    0.0008687300
  -0.0005915500   -0.0003415300    0.0004814000
   0.0000000000    0.0006830600    0.0004814000
  -0.0000058400   -0.0000033700    0.0001762400
   0.0000058400   -0.0000033700    0.0001762400
   0.0045765100    0.0026422500   -0.0041301700
  -0.0045765100    0.0026422500   -0.0041301700
   0.0000000000    0.0000663700   -0.0001134500
  -0.0002284100    0.0001318700   -0.0004068800
   0.0000000000   -0.0052845000   -0.0041301700
   0.0002284100    0.0001318700   -0.0004068800
   0.0000000000   -0.0002637500   -0.0004068800
  -0.0000574800   -0.0000331900   -0.0001134500
   0.0000574800   -0.0000331900   -0.0001134500

73   
  0.0100000000000000   0.0000000000000000   0.0000000000000000
   0.0007370900    0.0023048400    0.0031621600
   0.0002346300   -0.0000024900    0.0011951900
   0.0007330000   -0.0022925800   -0.0007515900
   0.0008350800   -0.0000038600    0.0011945800
  -0.0002317900    0.0002668600    0.0012809300
  -0.0002297200   -0.0002705600    0.0011100500
   0.0012769400   -0.0002570000    0.0012697000
   0.0012800900    0.0002550900    0.0011240400
  -0.0032463100    0.0000028900    0.0011873700
  -0.0001967600   -0.0000640900   -0.0005035700
   0.0003287200   -0.0000016000    0.0011947100
  -0.0002064300    0.0000624400    0.0028883900
   0.0000824200   -0.0000004800    0.0011948000
  -0.0000433400    0.0002125000    0.0011190900
  -0.0000437700   -0.0002174000    0.0012707800
   0.0001518100   -0.0000420100    0.0011176300
   0.0001506200    0.0000374700    0.0012718300
  -0.0000921500   -0.0000031100    0.0011977000
  -0.0000921500    0.0000031100   -0.0011977000
   0.0001518100    0.0000420100   -0.0011176300
   0.0001506200   -0.0000374700   -0.0012718300
  -0.0000433400   -0.0002125000   -0.0011190900
  -0.0000437700    0.0002174000   -0.0012707800
   0.0000824200    0.0000004800   -0.0011948000
  -0.0001967600    0.0000640900    0.0005035700
   0.0003287200    0.0000016000   -0.0011947100
  -0.0002064300   -0.0000624400   -0.0028883900
  -0.0032463100   -0.0000028900   -0.0011873700
   0.0012769400    0.0002570000   -0.0012697000
   0.0012800900   -0.0002550900   -0.0011240400
  -0.0002317900   -0.0002668600   -0.0012809300
  -0.0002297200    0.0002705600   -0.0011100500
   0.0008350800    0.0000038600   -0.0011945800
   0.0007370900   -0.0023048400   -0.0031621600
   0.0002346300    0.0000024900   -0.0011951900
   0.0007330000    0.0022925800    0.0007515900
   0.0001415700   -0.0005486700   -0.0051226200
  -0.0003378600   -0.0000019800   -0.0045871700
   0.0001422800    0.0005412300   -0.0040514000
  -0.0000754200   -0.0000019600   -0.0045843300
   0.0000051400   -0.0001998800   -0.0045921400
   0.0000055000    0.0001963700   -0.0045813000
  -0.0005392400    0.0002653700   -0.0051766400
  -0.0005405200   -0.0002709700   -0.0039895800
   0.0010858100    0.0000000500   -0.0045908400
   0.0073691200    0.0037382200   -0.0093216600
  -0.0012721100   -0.0000022000   -0.0045852000
   0.0071600500   -0.0036037600   -0.0000325200
   0.0005771400   -0.0000046900   -0.0045869500
  -0.0003205700   -0.0005508500   -0.0046431100
  -0.0003205700    0.0005478500   -0.0045280200
  -0.0000245300    0.0003459100   -0.0043573900
  -0.0000266200   -0.0003500400   -0.0048155300
   0.0009067100    0.0000242700   -0.0045694400
   0.0009067100   -0.0000242700    0.0045694400
  -0.0000245300   -0.0003459100    0.0043573900
  -0.0000266200    0.0003500400    0.0048155300
  -0.0003205700    0.0005508500    0.0046431100
  -0.0003205700   -0.0005478500    0.0045280200
   0.0005771400    0.0000046900    0.0045869500
   0.0073691200   -0.0037382200    0.0093216600
  -0.0012721100    0.0000022000    0.0045852000
   0.0071600500    0.0036037600    0.0000325200
   0.0010858100   -0.0000000500    0.0045908400
  -0.0005392400   -0.0002653700    0.0051766400
  -0.0005405200    0.0002709700    0.0039895800
   0.0000051400    0.0001998800    0.0045921400
   0.0000055000   -0.0001963700    0.0045813000
  -0.0000754200    0.0000019600    0.0045843300
   0.0001415700    0.0005486700    0.0051226200
  -0.0003378600    0.0000019800    0.0045871700
   0.0001422800   -0.0005412300    0.0040514000
  -0.0365571100    0.0000000000    0.0000000000
   0.0025608300    0.0000000000    0.0000000000