96
6

1
  0.0100000000000000   0.0000000000000000   0.0000000000000000
  -0.1384881400   -0.0456654300   -0.0440232800
   0.0052590400    0.0005059100    0.0008987500
  -0.0000698000    0.0009063500   -0.0003355900
   0.0004850400    0.0006234200   -0.0001801500
  -0.0016955200   -0.0003297100    0.0005006500
   0.0010846800    0.0001255000    0.0006226100
  -0.0005450500   -0.0001792200    0.0001261000
   0.0005358800    0.0001622600    0.0001603600
  -0.0051798900    0.0014750000   -0.0010428300
   0.0017854600   -0.0001062000   -0.0006333700
  -0.0052207000    0.0086835900    0.0060796600
   0.0017893700   -0.0006917900   -0.0002018000
  -0.0008252100   -0.0000737000   -0.0004085000
   0.0011295000    0.0000921400    0.0011194700
  -0.0008250400    0.0001209700   -0.0005044000
   0.0011299900   -0.0001709400    0.0005031600
   0.0002136200   -0.0002099500    0.0007000200
   0.0002210300    0.0004961400    0.0000909900
   0.0000755100   -0.0001362400    0.0001702700
   0.0000785000    0.0000054800   -0.0000986200
   0.0044035200    0.0026684500   -0.0086755300
   0.0043695900   -0.0049726600   -0.0014618800
  -0.0000646700   -0.0006374400   -0.0001194600
  -0.0000463900    0.0017063200    0.0000758600
  -0.0000872400   -0.0010471200   -0.0026763500
   0.0005998900   -0.0004134400    0.0006465300
  -0.0008108200   -0.0006408200    0.0002042900
   0.0007254900    0.0011309200    0.0001408500
  -0.0001153600    0.0060017900    0.0049621200
   0.0006030500   -0.0005097800   -0.0017228800
  -0.0008066000   -0.0002003400   -0.0004920600
   0.0007231500    0.0005039200   -0.0000050000
   0.0146560600   -0.0046276100   -0.0011111000
   0.0207966500    0.0082098500    0.0028714500
   0.0001001300    0.0004313600   -0.0000951300
  -0.0004256800    0.0002210100   -0.0001567400
   0.0004098600   -0.0003658300    0.0001714500
   0.0000028400   -0.0000175500    0.0001934700
   0.0001868100    0.0003282700    0.0003810000
  -0.0000653800   -0.0002926300    0.0001276100
   0.0023742100   -0.0038818100   -0.0039248700
   0.0052388500    0.0011299800    0.0043627800
   0.0006466700    0.0007880800   -0.0004311900
  -0.0000953200   -0.0001399900   -0.0000313100
   0.0003629700   -0.0048722300    0.0052976300
   0.0002591400    0.0002361400   -0.0006502500
  -0.0004039400    0.0007081500    0.0005208500
   0.0003548400   -0.0001290300   -0.0000706900
  -0.0003631900   -0.0002240300    0.0002599100
   0.0003553000    0.0000297900    0.0000285700
  -0.0009929900    0.0000501700    0.0007068300
   0.0008603900    0.0001981800    0.0003178100
  -0.0018241500    0.0012074200   -0.0001435900
   0.0021262900    0.0006194300    0.0000491600
  -0.0052713400    0.0022000100   -0.0035287800
   0.0015226900    0.0000731000    0.0001308600
  -0.0014923400   -0.0028523100    0.0092141700
   0.0014105000   -0.0001653100   -0.0003234700
  -0.0004521000    0.0009343900    0.0000245000
   0.0004897400   -0.0000412500    0.0001261400
  -0.0022483000    0.0004844300   -0.0041667400
   0.0011908700   -0.0002697600    0.0001504700
  -0.0005001700    0.0004774500   -0.0002547800
   0.0004590700   -0.0002409500    0.0000514000
   0.0475412100    0.0251826200    0.0132522500
  -0.0053454600    0.0034686100    0.0021246600
   0.0011913900   -0.0006640700   -0.0002641200
  -0.0014955100   -0.0016954500    0.0001052200
   0.0004183900   -0.0007266300   -0.0005001600
  -0.0019105500   -0.0004480200   -0.0009608500
   0.0004829900    0.0000627000   -0.0000972500
  -0.0007210200   -0.0002747300   -0.0002561600
   0.0001095300    0.0027758900    0.0002541500
  -0.0009697200   -0.0005170900    0.0012927400
  -0.0009524800   -0.0023577100   -0.0034689200
  -0.0016049700    0.0009216500    0.0006401400
   0.0013532800    0.0023119700    0.0024548000
  -0.0024308000   -0.0037029400   -0.0046628100
   0.0002509800   -0.0031840000    0.0023360900
  -0.0014273300    0.0026446200   -0.0004444100
   0.0038272500   -0.0006640200    0.0008472400
  -0.0019147300    0.0012642000   -0.0019381000
   0.0010934100   -0.0001764100    0.0003383900
  -0.0007978500   -0.0004105800   -0.0003599500
   0.0406130700   -0.0052905200    0.0296821800
  -0.0055112500   -0.0005450300    0.0030442600
   0.0009797500   -0.0010891700    0.0001235600
  -0.0008532600   -0.0006675600   -0.0000120600
   0.0187353200    0.0145515200   -0.0044691300
  -0.0059165900    0.0014884800   -0.0018604900
   0.0040450100   -0.0015890400   -0.0002008600
  -0.0020294000   -0.0016283900    0.0009110800
   0.0038016800    0.0004655500   -0.0023693300
  -0.0017957400    0.0003413600   -0.0000170100
   0.0021704200    0.0008263600    0.0000639000
  -0.0010378700   -0.0001045500   -0.0001064400

1
 -0.0100000000000000   0.0000000000000000   0.0000000000000000
   0.1374850400    0.0432479100    0.0448974400
  -0.0052516300   -0.0004984300   -0.0008994100
   0.0000783800   -0.0008920100    0.0003172700
  -0.0004745700   -0.0006250900    0.0001759500
   0.0017016300    0.0003230100   -0.0005037600
  -0.0010805200   -0.0001351200   -0.0006259300
   0.0005498900    0.0001769500   -0.0001345000
  -0.0005285200   -0.0001653300   -0.0001673100
   0.0051447900   -0.0014522800    0.0010243600
  -0.0017773500    0.0000836800    0.0006565800
   0.0051050400   -0.0085409400   -0.0059525700
  -0.0017733400    0.0006902000    0.0002175400
   0.0008153700    0.0000708000    0.0004200600
  -0.0011375200   -0.0001014100   -0.0011225300
   0.0008156800   -0.0001273500    0.0005069100
  -0.0011369600    0.0001656700   -0.0004976900
  -0.0002176100    0.0002057900   -0.0006824700
  -0.0002102900   -0.0004898100   -0.0000992100
  -0.0000731800    0.0001477400   -0.0001667700
  -0.0000702100    0.0000036500    0.0000946300
  -0.0043359000   -0.0026323100    0.0085483200
  -0.0043693500    0.0049784800    0.0014653000
   0.0000502100    0.0006458400    0.0001287500
   0.0000686600   -0.0017161600   -0.0000689100
   0.0001354300    0.0010200100    0.0026238300
  -0.0006194000    0.0004150500   -0.0006370000
   0.0008007900    0.0006489300   -0.0002118800
  -0.0007243600   -0.0011110700   -0.0001432400
   0.0001068200   -0.0060294000   -0.0049894100
  -0.0006161600    0.0005015700    0.0016995800
   0.0008050600    0.0002189900    0.0004937800
  -0.0007267700   -0.0004968400   -0.0000033500
  -0.0144171100    0.0045546000    0.0010893000
  -0.0211199500   -0.0083681700   -0.0029061300
  -0.0000831700   -0.0004049700    0.0000762100
   0.0004485800   -0.0001999000    0.0001358400
  -0.0004024600    0.0003837200   -0.0001936200
   0.0000207500    0.0000356600   -0.0002210400
  -0.0001676800   -0.0003031800   -0.0003958900
   0.0000854900    0.0003143500   -0.0001517800
  -0.0023729700    0.0038892000    0.0039368000
  -0.0052184000   -0.0010898300   -0.0043144100
  -0.0006035200   -0.0007043100    0.0004470900
   0.0000670900    0.0001598000    0.0000528800
  -0.0004023800    0.0049368400   -0.0053420200
  -0.0002807800   -0.0002139600    0.0006611500
   0.0003899300   -0.0006924300   -0.0005046300
  -0.0003798700    0.0001495100    0.0000893300
   0.0003814600    0.0002066800   -0.0002421400
  -0.0003329100   -0.0000476900   -0.0000108200
   0.0010108900   -0.0000739600   -0.0006826000
  -0.0008366700   -0.0002149100   -0.0002990700
   0.0018318100   -0.0011346100    0.0001926600
  -0.0021082400   -0.0006550300   -0.0000340300
   0.0052354600   -0.0022675900    0.0035594900
  -0.0014975000   -0.0000879700   -0.0001128200
   0.0013938500    0.0028420300   -0.0092316300
  -0.0014234900    0.0001460900    0.0003139300
   0.0004272100   -0.0009394000   -0.0000458500
  -0.0005022700    0.0000246500   -0.0001435300
   0.0022086000   -0.0005113400    0.0041866100
  -0.0012045000    0.0002487500   -0.0001690300
   0.0004757000   -0.0004893300    0.0002433200
  -0.0004779100    0.0002229700   -0.0000720200
  -0.0453096600   -0.0231088300   -0.0124453100
   0.0053089200   -0.0034888200   -0.0021543500
  -0.0011625400    0.0006439900    0.0002623900
   0.0014605100    0.0017231400   -0.0001378200
  -0.0004198200    0.0007575800    0.0004771800
   0.0019042200    0.0004679200    0.0009582700
  -0.0004866100   -0.0000582600    0.0000827600
   0.0007065300    0.0002862400    0.0002511900
  -0.0000711000   -0.0027922300   -0.0002579100
   0.0009483200    0.0005050300   -0.0012949800
   0.0009439600    0.0023301700    0.0034101900
   0.0016009100   -0.0009239900   -0.0006282000
  -0.0012956300   -0.0023148700   -0.0024610200
   0.0024244700    0.0037053900    0.0046856200
  -0.0002052000    0.0031346500   -0.0023153500
   0.0014349300   -0.0026670700    0.0004281600
  -0.0038378800    0.0006630200   -0.0008122500
   0.0019088300   -0.0012626600    0.0019275100
  -0.0010984200    0.0001563400   -0.0003116400
   0.0007835700    0.0003922300    0.0003679300
  -0.0416433200    0.0058958200   -0.0315285100
   0.0054675400    0.0005449600   -0.0029995600
  -0.0010213900    0.0010549900   -0.0001288600
   0.0008502000    0.0006539500    0.0000259900
  -0.0187061000   -0.0147741200    0.0046700500
   0.0059224300   -0.0014615700    0.0018316500
  -0.0039841600    0.0015718000    0.0002340700
   0.0020199900    0.0016236000   -0.0008988800
  -0.0038124700   -0.0004553800    0.0023790600
   0.0018117400   -0.0003297700    0.0000379100
  -0.0021722800   -0.0008307300   -0.0000544800
   0.0010453300    0.0001104600    0.0001232600

33
  0.0100000000000000   0.0000000000000000   0.0000000000000000
   0.0144045400   -0.0041174200    0.0011536800
   0.0211267500    0.0093032700    0.0022435700
   0.0000962500    0.0001577200   -0.0002182700
  -0.0004372300   -0.0003235000    0.0000582700
   0.0004084500   -0.0002531000    0.0006336100
  -0.0000061800    0.0000296800    0.0000814100
   0.0001814300    0.0000595500    0.0000371400
  -0.0000741300    0.0001321800    0.0002032800
   0.0023547500    0.0038889100   -0.0038480400
   0.0052581300   -0.0053563100    0.0007504200
   0.0006166600   -0.0043321600   -0.0048928300
  -0.0000861000    0.0006565700    0.0007050300
   0.0004048100    0.0004355600    0.0011299400
   0.0002647700   -0.0005135600   -0.0001475800
  -0.0003990700    0.0000402100    0.0002305000
   0.0003641100    0.0000766000   -0.0001364600
  -0.0010005200    0.0001491000    0.0001587400
   0.0008518400   -0.0001363800    0.0000372400
  -0.0003689600    0.0000875800    0.0002630100
   0.0003464900   -0.0003873900    0.0002358500
  -0.0052421900   -0.0029453700    0.0028758500
   0.0015132100   -0.0002027600   -0.0009371700
  -0.0018315600    0.0011360600   -0.0004868900
   0.0021216300   -0.0001800000   -0.0004820500
   0.0011985300    0.0002532100   -0.0004220000
  -0.0022450100   -0.0001709900    0.0045885900
   0.0004659600    0.0000228900   -0.0003183000
  -0.0004908500    0.0000464200    0.0003720700
   0.0014142400    0.0006953200   -0.0002148800
  -0.0014803500   -0.0035347600   -0.0082715900
   0.0004942400    0.0003092900    0.0002988400
  -0.0004445600    0.0001246000    0.0000246400
  -0.0958600400   -0.0041649500    0.0036469500
   0.0012343100    0.0000326700   -0.0000841000
  -0.0004697500    0.0000817500   -0.0000032500
   0.0006815900   -0.0001114100   -0.0001734900
  -0.0005391600    0.0000009700   -0.0000324200
   0.0006116600    0.0000289800    0.0001115500
  -0.0001976900    0.0001746500   -0.0000286000
   0.0002262200   -0.0000600000    0.0000602700
   0.0009056600    0.0000668700    0.0001867600
  -0.0013001900    0.0016446300    0.0008583200
   0.0009058600    0.0001496000   -0.0000242300
  -0.0013083800   -0.0015678300    0.0007592200
   0.0006338800   -0.0002188700    0.0002169600
  -0.0017900800    0.0008588600   -0.0016079600
   0.0006336900    0.0001610300    0.0000543700
  -0.0017852500    0.0006747800    0.0006653500
  -0.0000307800    0.0001016400    0.0000690800
  -0.0000321900   -0.0002503900    0.0001517100
   0.0000559600   -0.0001856100   -0.0002193400
   0.0000559700    0.0001939400    0.0001620900
   0.0037241800    0.0039319600    0.0016205000
   0.0037749400   -0.0034300200   -0.0015854600
   0.0007627300   -0.0009353300    0.0008626700
   0.0007573700    0.0018667300    0.0006721800
   0.0022579600   -0.0008498100   -0.0033970800
   0.0012415500    0.0016115800    0.0018739600
  -0.0000910000   -0.0001870400   -0.0002505900
   0.0000169900   -0.0002171600    0.0001942600
   0.0022546400   -0.0007694200    0.0039459200
   0.0012300500   -0.0006603600   -0.0009281000
  -0.0000892600    0.0000234000    0.0001017000
   0.0000172700   -0.0000551100   -0.0001855100
   0.0084407000   -0.0021783400    0.0038246100
  -0.0040109100   -0.0026957200   -0.0007665100
   0.0008784800   -0.0019662700    0.0005864600
  -0.0016811200    0.0018722800    0.0002577300
   0.0021476700    0.0012540400   -0.0006608500
  -0.0008657700   -0.0005651500    0.0001737800
   0.0002692100   -0.0005209500   -0.0006625900
  -0.0003991600    0.0002252200   -0.0000986200
   0.0024206500   -0.0000639200    0.0017437900
  -0.0021000700    0.0003246900   -0.0015088800
   0.0022781400    0.0001959000    0.0008761400
  -0.0010156100   -0.0003402200   -0.0002953200
   0.0083243100   -0.0015095500   -0.0002314600
  -0.0022344400   -0.0001363000    0.0004635400
   0.0013324800    0.0003636600   -0.0011724700
  -0.0014773800   -0.0003479100    0.0004682800
  -0.0021754700    0.0004747300   -0.0000164200
   0.0010994600   -0.0008659200   -0.0009949400
  -0.0005485700    0.0001084700   -0.0000971100
   0.0001889300    0.0000288600   -0.0005564900
  -0.0041127600    0.0006431400   -0.0014972200
   0.0224865200    0.0130574600   -0.0114013600
  -0.0012646900   -0.0010775200   -0.0002799400
   0.0018634000    0.0004430500    0.0006738100
  -0.0033890700   -0.0015118200    0.0018605400
   0.0180006400    0.0014573200    0.0060651300
  -0.0016622500    0.0009181900    0.0003472000
   0.0007761000   -0.0003385200   -0.0004369200
  -0.0015024400   -0.0009246900   -0.0009372200
  -0.0002005500    0.0010668900    0.0010100400
  -0.0001758700    0.0001453200   -0.0002192500
   0.0000406700   -0.0006282000    0.0000832300

33
 -0.0100000000000000   0.0000000000000000   0.0000000000000000
  -0.0146687000    0.0042376100   -0.0011894100
  -0.0207895100   -0.0091441900   -0.0022246900
  -0.0000870600   -0.0001620800    0.0002123300
   0.0004370500    0.0003139000   -0.0000659900
  -0.0004036000    0.0002449600   -0.0006409200
   0.0000117800   -0.0000407400   -0.0000796200
  -0.0001728100   -0.0000639200   -0.0000403800
   0.0000769200   -0.0001375900   -0.0002097800
  -0.0023922000   -0.0039739000    0.0039238300
  -0.0051995600    0.0052829600   -0.0007415700
  -0.0006341500    0.0043445500    0.0049161200
   0.0000760800   -0.0006550300   -0.0006949900
  -0.0003606500   -0.0004428600   -0.0010893500
  -0.0002756300    0.0005115100    0.0001525700
   0.0003945200   -0.0000445000   -0.0002191800
  -0.0003708000   -0.0000837500    0.0001423200
   0.0010032600   -0.0001434600   -0.0001523800
  -0.0008450200    0.0001432000   -0.0000286400
   0.0003755500   -0.0000836800   -0.0002551000
  -0.0003413100    0.0003894200   -0.0002279300
   0.0052649100    0.0028320300   -0.0028188400
  -0.0015068600    0.0002117600    0.0009368800
   0.0018245600   -0.0010642300    0.0005089300
  -0.0021126500    0.0001851600    0.0004848100
  -0.0011969200   -0.0002483300    0.0004143200
   0.0022120700    0.0001654800   -0.0045929300
  -0.0004713400   -0.0000162600    0.0003127500
   0.0004851000   -0.0000364300   -0.0003779100
  -0.0014198200   -0.0006939100    0.0002055000
   0.0014057000    0.0035539600    0.0083038900
  -0.0004979300   -0.0003073200   -0.0003085800
   0.0004346100   -0.0001189100   -0.0000288900
   0.0947468000    0.0034668600   -0.0039797900
  -0.0012144400   -0.0000152800    0.0000608600
   0.0004883400   -0.0000636300   -0.0000193700
  -0.0006613000    0.0001285800    0.0001537200
   0.0005578600    0.0000170700    0.0000156700
  -0.0005907400   -0.0000100900   -0.0001285600
   0.0002174200   -0.0001527900    0.0000104200
  -0.0002060600    0.0000798700   -0.0000796800
  -0.0009200800   -0.0000465900   -0.0001654400
   0.0012768900   -0.0016167400   -0.0008346200
  -0.0009200400   -0.0001299400    0.0000434700
   0.0012688200    0.0016025300   -0.0007611900
  -0.0006525900    0.0002408900   -0.0001984700
   0.0017565700   -0.0008348800    0.0016166900
  -0.0006527700   -0.0001413700   -0.0000368000
   0.0017613100   -0.0006532500   -0.0006438300
   0.0000508300   -0.0001204000   -0.0000442200
   0.0000495400    0.0002311900   -0.0001278000
  -0.0000362000    0.0001659700    0.0002404300
  -0.0000362000   -0.0002130400   -0.0001402000
  -0.0037541000   -0.0040080100   -0.0016411200
  -0.0037036700    0.0033635300    0.0015847600
  -0.0007340200    0.0009085100   -0.0008311700
  -0.0007391900   -0.0018860100   -0.0006562600
  -0.0022747800    0.0008435200    0.0033960600
  -0.0012506400   -0.0016132400   -0.0018787300
   0.0000718500    0.0001653700    0.0002308600
  -0.0000399100    0.0001983600   -0.0002126400
  -0.0022778900    0.0007509800   -0.0039935600
  -0.0012621600    0.0006487500    0.0009157800
   0.0000736000   -0.0000442400   -0.0001201100
  -0.0000397300    0.0000358600    0.0001660700
  -0.0085579800    0.0025154200   -0.0037973600
   0.0039983000    0.0026941700    0.0007501400
  -0.0009039800    0.0019685300   -0.0005718700
   0.0016687900   -0.0018490600   -0.0002648800
  -0.0021590100   -0.0012432100    0.0006444900
   0.0008582200    0.0005800000   -0.0001924000
  -0.0002788600    0.0005207600    0.0006379300
   0.0003943400   -0.0002130700    0.0000836800
  -0.0024106900    0.0000569400   -0.0017652500
   0.0021053200   -0.0003317900    0.0014842400
  -0.0022689000   -0.0002066100   -0.0008879700
   0.0010280800    0.0003251700    0.0002871100
  -0.0083757900    0.0014986900    0.0001997200
   0.0022480800    0.0001170000   -0.0004649100
  -0.0013205400   -0.0003592000    0.0011461100
   0.0014895400    0.0003339200   -0.0004744300
   0.0021561000   -0.0004844300    0.0000245400
  -0.0011074400    0.0008509800    0.0009884300
   0.0005325100   -0.0001176700    0.0001049500
  -0.0001980200   -0.0000423600    0.0005722200
   0.0041004900   -0.0006561200    0.0015224300
  -0.0220904700   -0.0125321700    0.0109151100
   0.0012460200    0.0010748800    0.0002951900
  -0.0018525100   -0.0004602500   -0.0006625200
   0.0034004800    0.0015187900   -0.0018420600
  -0.0170897600   -0.0016415800   -0.0054057700
   0.0016717500   -0.0009078700   -0.0003272800
  -0.0007623700    0.0003488000    0.0004496200
   0.0015002900    0.0009483300    0.0009446400
   0.0002190700   -0.0010619500   -0.0010184700
   0.0001792600   -0.0001345200    0.0002278800
  -0.0000291800    0.0006357500   -0.0000716400

65
  0.0100000000000000   0.0000000000000000   0.0000000000000000
   0.0451584200    0.0294418500    0.0142143300
  -0.0053327200    0.0008284100   -0.0015863100
   0.0011853400    0.0030277900    0.0004500600
  -0.0014768600   -0.0019405900    0.0008300700
   0.0004138700    0.0001233800    0.0014961000
  -0.0019115100    0.0003231100   -0.0016339400
   0.0004868800   -0.0000238400    0.0003368000
  -0.0007107000   -0.0003665300   -0.0001106500
   0.0040189000   -0.0021517700   -0.0006734400
  -0.0020344700    0.0009643600   -0.0001638000
   0.0186347100   -0.0126272800   -0.0053982000
  -0.0059096300    0.0004820000   -0.0010706000
   0.0021733700   -0.0001214200    0.0012728300
  -0.0010465100    0.0002518100   -0.0003989100
   0.0038117300    0.0002606800   -0.0005343500
  -0.0018077300    0.0000871300   -0.0006563700
   0.0038573600    0.0002123300   -0.0034913000
  -0.0019175700   -0.0000448600    0.0017010600
   0.0011054100   -0.0009060600    0.0004622900
  -0.0007922500    0.0001181900    0.0002837800
   0.0416262100    0.0047931800   -0.0249404800
  -0.0054951700    0.0023780500    0.0006666600
   0.0010046700    0.0018502000    0.0007428700
  -0.0008519100    0.0000319600   -0.0000556800
  -0.0024513100    0.0002581100    0.0031573000
   0.0013351300    0.0024669900   -0.0023230800
  -0.0014495300    0.0012885200    0.0023508100
   0.0002350900   -0.0046878700   -0.0028077600
  -0.0009636400   -0.0034407200   -0.0026596700
   0.0000874600    0.0023361200    0.0037174900
  -0.0016222000    0.0006460300   -0.0009346900
  -0.0009517500   -0.0004372600    0.0005093800
   0.0085120400   -0.0057878400    0.0014700500
  -0.0040026600   -0.0010004000   -0.0003695700
   0.0009052200   -0.0018569500    0.0000496900
  -0.0016759700    0.0009495400   -0.0002155200
   0.0021688000    0.0004539200    0.0001180600
  -0.0008564200   -0.0000670000    0.0003309900
   0.0002874800   -0.0003248500   -0.0003352100
  -0.0003909100    0.0002320400    0.0003207300
  -0.0033604500    0.0017331100    0.0019435300
   0.0179635800   -0.0001060500    0.0025897200
  -0.0016798400   -0.0014865600    0.0005318000
   0.0007637600    0.0004775600   -0.0012438000
  -0.0015134400    0.0008904300   -0.0018446600
  -0.0002152400   -0.0011481500    0.0027059800
  -0.0001897500   -0.0002805600   -0.0002083900
   0.0000250800    0.0004841900    0.0005849600
   0.0002034400   -0.0003047100    0.0004968300
  -0.0005310100   -0.0001105300    0.0001234900
   0.0011127600    0.0006607600    0.0006763900
  -0.0021546700   -0.0005747100   -0.0010692000
   0.0018748000   -0.0015119700   -0.0008485000
  -0.0012481800   -0.0000277100    0.0000465800
   0.0220712300   -0.0109168100    0.0125406800
  -0.0041161700   -0.0010104700    0.0004678900
   0.0082623500   -0.0038652200    0.0016136900
  -0.0022546800    0.0006518300   -0.0003563600
   0.0013165000    0.0007610800    0.0010599400
  -0.0014948700   -0.0001970500   -0.0006440000
   0.0024096800   -0.0005834600   -0.0015071500
  -0.0021132700    0.0006405800    0.0009044000
   0.0022675200   -0.0002711100   -0.0009450900
  -0.0010337900    0.0000807300    0.0001312200
  -0.1829309700   -0.0153230000    0.0171643600
   0.0098140900   -0.0001258700    0.0002513300
  -0.0056446000   -0.0002732600    0.0015549300
   0.0030391100   -0.0000247500    0.0000387800
  -0.0040110900   -0.0015450700    0.0000981800
   0.0039050000    0.0002384100    0.0000226600
  -0.0015678100   -0.0000411100   -0.0002468200
   0.0014990100    0.0002237900   -0.0002240300
  -0.0056144800    0.0022501900    0.0011219700
   0.0030092800    0.0002131400   -0.0005197200
  -0.0155136700    0.0057432500    0.0024721000
   0.0056078100   -0.0018752700   -0.0021516200
  -0.0055817300   -0.0027932000   -0.0067402400
   0.0029980000    0.0012332100    0.0016601200
  -0.0153814800    0.0135479200   -0.0115700000
   0.0056327700   -0.0005977100    0.0008469100
   0.0012630200    0.0010827000   -0.0046456600
   0.0012112400   -0.0067358500    0.0088986200
   0.0001241100   -0.0005218700   -0.0011650500
   0.0001065200    0.0016665700    0.0014281900
   0.0198280500    0.0025338000    0.0206542800
   0.0199723200   -0.0115897400   -0.0132934500
   0.0014972000   -0.0021940500    0.0012482200
   0.0014908000    0.0008508400   -0.0011957500
   0.0054658000    0.0206856900   -0.0134897300
   0.0070069300   -0.0046701700    0.0027912400
   0.0055571500   -0.0131829300   -0.0057050600
   0.0070135400    0.0089041800   -0.0022231400
  -0.0007665800    0.0012527700    0.0005945600
   0.0010111800   -0.0011685200   -0.0012362700
  -0.0007668300   -0.0011957400    0.0019047000
   0.0010043200    0.0014259900   -0.0002163600

65
 -0.0100000000000000   0.0000000000000000   0.0000000000000000
  -0.0476943500   -0.0317853900   -0.0151255000
   0.0053228400   -0.0008318900    0.0015759900
  -0.0011682500   -0.0030167900   -0.0004711700
   0.0014807400    0.0019241000   -0.0008274700
  -0.0004229700   -0.0001288900   -0.0014546200
   0.0019039600   -0.0003279400    0.0016172400
  -0.0004827600    0.0000135800   -0.0003343400
   0.0007169300    0.0003613100    0.0001040600
  -0.0040120000    0.0021280000    0.0006540000
   0.0020149000   -0.0009543000    0.0001694700
  -0.0188092500    0.0130604900    0.0057855800
   0.0059304300   -0.0004960500    0.0010749600
  -0.0021692100    0.0001217400   -0.0012538400
   0.0010370700   -0.0002554800    0.0004052500
  -0.0038040900   -0.0002661000    0.0005547500
   0.0017998700   -0.0000933900    0.0006658200
  -0.0038085500   -0.0002232100    0.0034662800
   0.0019081500    0.0000732200   -0.0017175400
  -0.0010879200    0.0009041500   -0.0004531700
   0.0007888600   -0.0001119100   -0.0002774700
  -0.0406331900   -0.0043534200    0.0233405500
   0.0054849400   -0.0023722600   -0.0006416200
  -0.0009959000   -0.0018418500   -0.0007409700
   0.0008518800   -0.0000232800    0.0000654400
   0.0024054600   -0.0002543000   -0.0031627700
  -0.0013135600   -0.0024483600    0.0023035100
   0.0014127900   -0.0012989000   -0.0023375500
  -0.0002209500    0.0046604600    0.0027605000
   0.0009547900    0.0034391000    0.0026531100
  -0.0000935300   -0.0023157800   -0.0036916900
   0.0015847500   -0.0006220500    0.0009112400
   0.0009443300    0.0004362900   -0.0005125800
  -0.0084865800    0.0056734700   -0.0015364000
   0.0040080100    0.0010289800    0.0003541800
  -0.0008771100    0.0018467900   -0.0000699900
   0.0016751000   -0.0009319200    0.0001874500
  -0.0021381900   -0.0004326000   -0.0001349900
   0.0008682800    0.0000882300   -0.0003509900
  -0.0002616000    0.0003496600    0.0003215600
   0.0004024900   -0.0002146700   -0.0003449700
   0.0034311500   -0.0017760400   -0.0019922100
  -0.0171261100    0.0003220600   -0.0021104500
   0.0016537700    0.0015079400   -0.0005102100
  -0.0007741500   -0.0004510800    0.0012534200
   0.0014896400   -0.0008748900    0.0018771300
   0.0002041900    0.0011708500   -0.0026855400
   0.0001659400    0.0003011900    0.0002297800
  -0.0000448800   -0.0004584400   -0.0005604300
  -0.0001840100    0.0002707600   -0.0004620900
   0.0005499900    0.0000920500   -0.0001034600
  -0.0010934400   -0.0006757400   -0.0006231800
   0.0021785400    0.0005544600    0.0010828200
  -0.0018412500    0.0015082100    0.0008692900
   0.0012636500    0.0000145300   -0.0000242800
  -0.0225081200    0.0113982600   -0.0130466800
   0.0040975200    0.0009734400   -0.0004349000
  -0.0084382100    0.0037562800   -0.0014889100
   0.0022283100   -0.0006541500    0.0003306100
  -0.0013370100   -0.0007560900   -0.0010697300
   0.0014721600    0.0001689000    0.0006200200
  -0.0024226800    0.0005754300    0.0015243300
   0.0020918500   -0.0006600100   -0.0009225200
  -0.0022806800    0.0002521900    0.0009280200
   0.0010099500   -0.0001017200   -0.0001483900
   0.1842491700    0.0166051100   -0.0147273700
  -0.0098066800    0.0001115500   -0.0002961200
   0.0056101000    0.0002726300   -0.0015405200
  -0.0030358300    0.0000305600   -0.0000534200
   0.0039756600    0.0015503200   -0.0001376400
  -0.0039085700   -0.0002277900   -0.0000326300
   0.0015447200    0.0000509000    0.0002188000
  -0.0015000000   -0.0002104300    0.0002102700
   0.0055511400   -0.0022216000   -0.0011295200
  -0.0029664700   -0.0002283000    0.0005162900
   0.0152252000   -0.0057648700   -0.0026442100
  -0.0055982900    0.0019167700    0.0021913000
   0.0055843100    0.0027525400    0.0066921700
  -0.0029777400   -0.0012415300   -0.0016786800
   0.0153583900   -0.0135183500    0.0115114400
  -0.0055733300    0.0006069500   -0.0008652300
  -0.0011586900   -0.0011699500    0.0046632200
  -0.0012097500    0.0066968400   -0.0088167000
  -0.0001128900    0.0005135600    0.0011746900
  -0.0001307900   -0.0016707500   -0.0014075800
  -0.0199462100   -0.0025816500   -0.0207717300
  -0.0198007400    0.0114932100    0.0130629000
  -0.0014961000    0.0021476200   -0.0012413200
  -0.0015027200   -0.0008619500    0.0011986800
  -0.0054466900   -0.0207397100    0.0135778700
  -0.0069730600    0.0046371700   -0.0027550300
  -0.0053544800    0.0131734600    0.0058032500
  -0.0069667900   -0.0088118500    0.0022464600
   0.0007784800   -0.0012369200   -0.0006103300
  -0.0009927800    0.0011710600    0.0012381600
   0.0007785400    0.0011989200   -0.0018862400
  -0.0009998800   -0.0014107200    0.0002250500
