64
5

1
  0.0100000000000000   0.0000000000000000   0.0000000000000000
  -0.0147248800    0.0000000000    0.0000000000
   0.0001656500    0.0000000000    0.0000000000
  -0.0000187400    0.0000000000    0.0000000000
   0.0000113600    0.0000000000    0.0000000000
   0.0000998100    0.0000000000    0.0000000000
  -0.0000104700    0.0000000000    0.0000000000
  -0.0000331000    0.0000000000    0.0000000000
   0.0000029100    0.0000000000    0.0000000000
  -0.0002799600    0.0004188200    0.0000027200
   0.0000218000   -0.0000331800    0.0000176200
  -0.0002825200    0.0004189200   -0.0000027900
   0.0000221400   -0.0000342800   -0.0000177400
  -0.0002825200   -0.0004189200    0.0000027900
   0.0000221400    0.0000342800    0.0000177400
  -0.0002799600   -0.0004188200   -0.0000027200
   0.0000218000    0.0000331800   -0.0000176200
   0.0002838000    0.0000042800   -0.0003619700
   0.0002862900    0.0000012900    0.0003581400
   0.0000087000    0.0000173500    0.0000017900
   0.0000094000    0.0000177000   -0.0000017700
   0.0002838000   -0.0000042800    0.0003619700
   0.0002862900   -0.0000012900   -0.0003581400
   0.0000087000   -0.0000173500   -0.0000017900
   0.0000094000   -0.0000177000    0.0000017700
  -0.0070414400   -0.0049501800    0.0000245500
   0.0003003100    0.0003516700    0.0000000900
  -0.0001838900    0.0001415700   -0.0000003800
   0.0000461300    0.0000289700    0.0000017600
  -0.0070414400    0.0049501800   -0.0000245500
   0.0003003100   -0.0003516700   -0.0000000900
  -0.0001838900   -0.0001415700    0.0000003800
   0.0000461300   -0.0000289700   -0.0000017600
   0.0072443200    0.0048576100   -0.0008953700
  -0.0001169000    0.0001171400    0.0000081300
   0.0002897200    0.0002082400    0.0002809700
   0.0001793600    0.0001966600    0.0001965400
   0.0005558100    0.0002418600    0.0002929700
   0.0001803100    0.0002101200    0.0002235900
   0.0002830400    0.0003903300    0.0002390400
   0.0002162800    0.0002127700    0.0002232400
   0.0002897200   -0.0002082400   -0.0002809700
   0.0001793600   -0.0001966600   -0.0001965400
   0.0072443200   -0.0048576100    0.0008953700
  -0.0001169000   -0.0001171400   -0.0000081300
   0.0002830400   -0.0003903300   -0.0002390400
   0.0002162800   -0.0002127700   -0.0002232400
   0.0005558100   -0.0002418600   -0.0002929700
   0.0001803100   -0.0002101200   -0.0002235900
  -0.0005606800    0.0003254000   -0.0004371600
   0.0067419000   -0.0043238100   -0.0012138700
  -0.0002621000    0.0002464900   -0.0002459400
  -0.0001530000    0.0002347400   -0.0001585100
  -0.0002602300    0.0002328300   -0.0002195000
   0.0001108500    0.0002046300   -0.0001502000
  -0.0002263700    0.0002316200   -0.0002227200
  -0.0001593300    0.0000517100   -0.0002014600
  -0.0002621000   -0.0002464900    0.0002459400
  -0.0001530000   -0.0002347400    0.0001585100
  -0.0005606800   -0.0003254000    0.0004371600
   0.0067419000    0.0043238100    0.0012138700
  -0.0002263700   -0.0002316200    0.0002227200
  -0.0001593300   -0.0000517100    0.0002014600
  -0.0002602300   -0.0002328300    0.0002195000
   0.0001108500   -0.0002046300    0.0001502000

1
  0.0000000000000000   0.0000000000000000   0.0100000000000000
   0.0000000000    0.0000000000   -0.0464700300
   0.0000000000    0.0000000000   -0.0006488500
   0.0000000000    0.0000000000   -0.0006488500
   0.0000000000    0.0000000000   -0.0003833800
   0.0000000000    0.0000000000    0.0019853200
   0.0000000000    0.0000000000    0.0006741000
   0.0000000000    0.0000000000    0.0006741000
   0.0000000000    0.0000000000    0.0003470000
   0.0004187600   -0.0011844600    0.0002829100
  -0.0000335600   -0.0001470000    0.0000079200
  -0.0004187600    0.0011844600    0.0002829100
   0.0000335600    0.0001470000    0.0000079200
   0.0004182600    0.0011846300    0.0002849300
  -0.0000335600    0.0001471700    0.0000079400
  -0.0004182600   -0.0011846300    0.0002849300
   0.0000335600   -0.0001471700    0.0000079400
  -0.0011844600    0.0004187600    0.0002829100
   0.0011844600   -0.0004187600    0.0002829100
  -0.0001470000   -0.0000335600    0.0000079200
   0.0001470000    0.0000335600    0.0000079200
   0.0011846300    0.0004182600    0.0002849300
  -0.0011846300   -0.0004182600    0.0002849300
   0.0001471700   -0.0000335600    0.0000079400
  -0.0001471700    0.0000335600    0.0000079400
   0.0000000000    0.0000000000    0.0183041600
   0.0000000000    0.0000000000   -0.0000711400
   0.0000000000    0.0000000000   -0.0000711400
   0.0000000000    0.0000000000    0.0000908800
   0.0000000000    0.0000000000    0.0186685100
   0.0000000000    0.0000000000   -0.0000708600
   0.0000000000    0.0000000000   -0.0000708600
   0.0000000000    0.0000000000    0.0000911900
  -0.0015224400   -0.0015224400    0.0032036400
  -0.0000545600    0.0003308800    0.0004224000
   0.0003308800   -0.0000545600    0.0004224000
   0.0001420400    0.0001420400    0.0003072900
  -0.0008672800   -0.0008672800   -0.0013565500
   0.0005443300    0.0002053600   -0.0000302000
   0.0002053600    0.0005443300   -0.0000302000
   0.0002442300    0.0002442300    0.0001052900
   0.0001202200   -0.0005046300   -0.0000273400
   0.0003085100   -0.0003085100   -0.0001437500
   0.0020740200   -0.0020740200    0.0028965700
   0.0005046300   -0.0001202200   -0.0000273400
   0.0002456900    0.0000947100   -0.0004792400
   0.0002060500   -0.0002060500   -0.0003447400
   0.0013212900   -0.0013212900   -0.0018064700
  -0.0000947100   -0.0002456900   -0.0004792400
  -0.0005046300    0.0001202200   -0.0000273400
  -0.0020740200    0.0020740200    0.0028965700
  -0.0003085100    0.0003085100   -0.0001437500
  -0.0001202200    0.0005046300   -0.0000273400
   0.0000947100    0.0002456900   -0.0004792400
  -0.0013212900    0.0013212900   -0.0018064700
  -0.0002060500    0.0002060500   -0.0003447400
  -0.0002456900   -0.0000947100   -0.0004792400
  -0.0001420400   -0.0001420400    0.0003072900
  -0.0003308800    0.0000545600    0.0004224000
   0.0000545600   -0.0003308800    0.0004224000
   0.0015224400    0.0015224400    0.0032036400
  -0.0002442300   -0.0002442300    0.0001052900
  -0.0002053600   -0.0005443300   -0.0000302000
  -0.0005443300   -0.0002053600   -0.0000302000
   0.0008672800    0.0008672800   -0.0013565500

25
  0.0100000000000000   0.0000000000000000   0.0000000000000000
  -0.0070393200   -0.0049460600   -0.0000087200
   0.0002998900    0.0001443500    0.0000029900
  -0.0001830100    0.0003537600   -0.0000001100
   0.0000474400    0.0000244000    0.0000000900
  -0.0070393200    0.0049460600    0.0000087200
   0.0002998900   -0.0001443500   -0.0000029900
  -0.0001830100   -0.0003537600    0.0000001100
   0.0000474400   -0.0000244000   -0.0000000900
  -0.0070393200   -0.0000087200   -0.0049460600
   0.0002998900    0.0000029900    0.0001443500
  -0.0070393200    0.0000087200    0.0049460600
   0.0002998900   -0.0000029900   -0.0001443500
  -0.0001830100   -0.0000001100    0.0003537600
   0.0000474400    0.0000000900    0.0000244000
  -0.0001830100    0.0000001100   -0.0003537600
   0.0000474400   -0.0000000900   -0.0000244000
   0.0186766300    0.0000000000    0.0000000000
   0.0182991000    0.0000000000    0.0000000000
  -0.0000690700    0.0000000000    0.0000000000
  -0.0000672900    0.0000000000    0.0000000000
  -0.0000690700    0.0000000000    0.0000000000
  -0.0000672900    0.0000000000    0.0000000000
   0.0000915400    0.0000000000    0.0000000000
   0.0000934100    0.0000000000    0.0000000000
  -0.2895445400    0.0000000000    0.0000000000
   0.0028690000    0.0000000000    0.0000000000
   0.0001536200    0.0000000000    0.0000000000
   0.0005502900    0.0000000000    0.0000000000
   0.0001536200    0.0000000000    0.0000000000
   0.0005502900    0.0000000000    0.0000000000
  -0.0012144600    0.0000000000    0.0000000000
   0.0001289700    0.0000000000    0.0000000000
   0.0708835000    0.0466623300    0.0466623300
  -0.0016917400   -0.0002002100   -0.0002002100
   0.0008911300    0.0002079800   -0.0002035200
  -0.0000447900   -0.0000380100    0.0000739100
   0.0008911300   -0.0002035200    0.0002079800
  -0.0000447900    0.0000739100   -0.0000380100
   0.0004921000    0.0006289700    0.0006289700
   0.0001607300    0.0002010500    0.0002010500
   0.0004921000   -0.0006289700   -0.0006289700
   0.0001607300   -0.0002010500   -0.0002010500
   0.0008911300    0.0002035200   -0.0002079800
  -0.0000447900   -0.0000739100    0.0000380100
   0.0008911300   -0.0002079800    0.0002035200
  -0.0000447900    0.0000380100   -0.0000739100
   0.0708835000   -0.0466623300   -0.0466623300
  -0.0016917400    0.0002002100    0.0002002100
  -0.0004948400    0.0003768800   -0.0004908600
   0.0004419400    0.0006525300   -0.0002470700
  -0.0002885700    0.0002520300   -0.0002520300
   0.0000425000   -0.0001754700    0.0001754700
  -0.0021539800    0.0006446200   -0.0006446200
   0.0694512200   -0.0447939500    0.0447939500
  -0.0004948400    0.0004908600   -0.0003768800
   0.0004419400    0.0002470700   -0.0006525300
  -0.0004948400   -0.0004908600    0.0003768800
   0.0004419400   -0.0002470700    0.0006525300
  -0.0021539800   -0.0006446200    0.0006446200
   0.0694512200    0.0447939500   -0.0447939500
  -0.0002885700   -0.0002520300    0.0002520300
   0.0000425000    0.0001754700   -0.0001754700
  -0.0004948400   -0.0003768800    0.0004908600
   0.0004419400   -0.0006525300    0.0002470700

33
  0.0100000000000000   0.0000000000000000   0.0000000000000000
   0.0069745800    0.0045413000   -0.0017406700
  -0.0003389100   -0.0000137000   -0.0002835300
   0.0000702200   -0.0001040000    0.0001060500
  -0.0000404200   -0.0000246900   -0.0000834100
   0.0003340600    0.0000191700   -0.0010924700
  -0.0000383800    0.0001703800    0.0003236600
   0.0000648000   -0.0000108400   -0.0000204100
  -0.0000062800   -0.0000097000    0.0000190400
   0.0069745800   -0.0017406700    0.0045413000
  -0.0003389100   -0.0002835300   -0.0000137000
   0.0003340600   -0.0010924700    0.0000191700
  -0.0000383800    0.0003236600    0.0001703800
   0.0000702200    0.0001060500   -0.0001040000
  -0.0000404200   -0.0000834100   -0.0000246900
   0.0000648000   -0.0000204100   -0.0000108400
  -0.0000062800    0.0000190400   -0.0000097000
   0.0031439600   -0.0011356800   -0.0011356800
  -0.0015855400    0.0000715100    0.0000715100
   0.0002023900   -0.0002148800    0.0000609900
  -0.0002558400    0.0000028200    0.0000198800
   0.0002023900    0.0000609900   -0.0002148800
  -0.0002558400    0.0000198800    0.0000028200
   0.0000861600   -0.0000241400   -0.0000241400
  -0.0001203300   -0.0000009000   -0.0000009000
   0.0697702800    0.0450685400    0.0450685400
  -0.0019286600   -0.0000201100   -0.0000201100
   0.0006704900   -0.0004204000   -0.0004307200
  -0.0002710600   -0.0002645400    0.0004057100
   0.0006704900   -0.0004307200   -0.0004204000
  -0.0002710600    0.0004057100   -0.0002645400
   0.0002668000   -0.0001520700   -0.0001520700
  -0.0000634300   -0.0000246300   -0.0000246300
  -0.0820518100   -0.0490325800   -0.0490325800
   0.0010989400    0.0005533300    0.0005533300
   0.0001116200    0.0005521300    0.0001792900
   0.0004132300    0.0002320300    0.0002932700
   0.0001116200    0.0001792900    0.0005521300
   0.0004132300    0.0002932700    0.0002320300
   0.0002214100    0.0002947700    0.0002947700
   0.0002823000    0.0002450600    0.0002450600
   0.0000205000   -0.0000193800   -0.0000193800
   0.0002805000   -0.0002080300   -0.0002080300
  -0.0005722400   -0.0001890100    0.0003654500
   0.0004293600   -0.0003234900   -0.0002892700
  -0.0005722400    0.0003654500   -0.0001890100
   0.0004293600   -0.0002892700   -0.0003234900
  -0.0110630700    0.0013082900    0.0013082900
   0.0011517000   -0.0007189500   -0.0007189500
   0.0000736000    0.0000192400    0.0002188000
  -0.0003774800    0.0001914000   -0.0006279200
  -0.0002258400    0.0002074900   -0.0001766200
  -0.0002653600    0.0003224400   -0.0003420600
   0.0012723600   -0.0003684600   -0.0006228200
   0.0027809000   -0.0013110000    0.0041347200
  -0.0004102600    0.0002881700   -0.0003425100
  -0.0003503900    0.0007182900   -0.0002896500
   0.0000736000    0.0002188000    0.0000192400
  -0.0003774800   -0.0006279200    0.0001914000
   0.0012723600   -0.0006228200   -0.0003684600
   0.0027809000    0.0041347200   -0.0013110000
  -0.0002258400   -0.0001766200    0.0002074900
  -0.0002653600   -0.0003420600    0.0003224400
  -0.0004102600   -0.0003425100    0.0002881700
  -0.0003503900   -0.0002896500    0.0007182900

33
 -0.0100000000000000   0.0000000000000000   0.0000000000000000
  -0.0070116800   -0.0046381200    0.0018568700
   0.0003368100    0.0000135900    0.0002787100
  -0.0000690900    0.0001040600   -0.0001040600
   0.0000401800    0.0000242900    0.0000825100
  -0.0003347600   -0.0000187700    0.0010953100
   0.0000382000   -0.0001695200   -0.0003189700
  -0.0000652300    0.0000108400    0.0000187200
   0.0000062600    0.0000098800   -0.0000190000
  -0.0070116800    0.0018568700   -0.0046381200
   0.0003368100    0.0002787100    0.0000135900
  -0.0003347600    0.0010953100   -0.0000187700
   0.0000382000   -0.0003189700   -0.0001695200
  -0.0000690900   -0.0001040600    0.0001040600
   0.0000401800    0.0000825100    0.0000242900
  -0.0000652300    0.0000187200    0.0000108400
   0.0000062600   -0.0000190000    0.0000098800
  -0.0029663200    0.0009770800    0.0009770800
   0.0015787200   -0.0000718100   -0.0000718100
  -0.0001995400    0.0002139300   -0.0000602000
   0.0002520000   -0.0000024900   -0.0000202800
  -0.0001995400   -0.0000602000    0.0002139300
   0.0002520000   -0.0000202800   -0.0000024900
  -0.0000855000    0.0000237500    0.0000237500
   0.0001188900    0.0000008900    0.0000008900
  -0.0705643000   -0.0463869800   -0.0463869800
   0.0019178500    0.0000198500    0.0000198500
  -0.0006634300    0.0004241100    0.0004246300
   0.0002689000    0.0002638200   -0.0004001300
  -0.0006634300    0.0004246300    0.0004241100
   0.0002689000   -0.0004001300    0.0002638200
  -0.0002674300    0.0001513600    0.0001513600
   0.0000639300    0.0000256100    0.0000256100
   0.0831027800    0.0509922100    0.0509922100
  -0.0006446000   -0.0001034700   -0.0001034700
   0.0003327100   -0.0001043700    0.0002667900
   0.0000352000    0.0002146300    0.0001541100
   0.0003327100    0.0002667900   -0.0001043700
   0.0000352000    0.0001541100    0.0002146300
   0.0002245000    0.0001546700    0.0001546700
   0.0001643600    0.0002017400    0.0002017400
   0.0004227700   -0.0004261400   -0.0004261400
   0.0001670300   -0.0002393600   -0.0002393600
   0.0010160700   -0.0002547900   -0.0008151500
   0.0000199400   -0.0001260500   -0.0001601400
   0.0010160700   -0.0008151500   -0.0002547900
   0.0000199400   -0.0001601400   -0.0001260500
   0.0116029600   -0.0017443300   -0.0017443300
  -0.0006979600    0.0002695600    0.0002695600
  -0.0005193000    0.0004270400   -0.0006647600
  -0.0000700500    0.0002574200    0.0001665800
  -0.0002207900    0.0002396800   -0.0002701200
  -0.0001809200    0.0001251700   -0.0001055600
  -0.0017094500    0.0008122200    0.0001715500
  -0.0032361400    0.0017411200   -0.0046145800
  -0.0000383500    0.0001595100   -0.0001064800
  -0.0000963700   -0.0002698700   -0.0001583200
  -0.0005193000   -0.0006647600    0.0004270400
  -0.0000700500    0.0001665800    0.0002574200
  -0.0017094500    0.0001715500    0.0008122200
  -0.0032361400   -0.0046145800    0.0017411200
  -0.0002207900   -0.0002701200    0.0002396800
  -0.0001809200   -0.0001055600    0.0001251700
  -0.0000383500   -0.0001064800    0.0001595100
  -0.0000963700   -0.0001583200   -0.0002698700
