18
16

1
  0.0150000000000000   0.0259807621135332   0.0000000000000000
  -0.0936314000   -0.2131206100   -0.0000006700
  -0.0026717500   -0.0041120900    0.0000007800
   0.0258301400    0.0594655300   -0.0000011700
   0.0068828800    0.0328545400    0.0000005500
   0.0361460300    0.0033263000   -0.0000011600
   0.0222813500   -0.0089754300    0.0000008100
  -0.0251314000    0.0144425100   -0.0224544900
  -0.0251305600    0.0144427200    0.0224542700
   0.0024435900    0.0356947500    0.0273039600
   0.0024433300    0.0356937500   -0.0273041700
   0.0095598500   -0.0071784800   -0.0044533800
   0.0095592700   -0.0071777400    0.0044531700
   0.0091120700    0.0160791100    0.0000014900
   0.0071483600    0.0067481300   -0.0000011100
   0.0031351900    0.0045733400    0.0161092800
   0.0031347000    0.0045745800   -0.0161151700
   0.0044413100    0.0063347500   -0.0291037200
   0.0044470300    0.0063343400    0.0291107600

1
 -0.0150000000000000  -0.0259807621135332   0.0000000000000000
   0.0944826300    0.2163593000   -0.0000008200
   0.0025432300    0.0039955200   -0.0000002100
  -0.0267455000   -0.0562474300   -0.0000002500
  -0.0071076200   -0.0299406900   -0.0000007200
  -0.0375386600   -0.0031783300   -0.0000001300
  -0.0249841600    0.0096423400   -0.0000004300
   0.0245286900   -0.0134905200    0.0213075700
   0.0245296200   -0.0134903100   -0.0213083000
  -0.0013416100   -0.0383681000   -0.0297976200
  -0.0013419500   -0.0383692100    0.0297968800
  -0.0102759000    0.0062357800    0.0048641800
  -0.0102765000    0.0062366100   -0.0048649300
  -0.0088839900   -0.0164819400   -0.0000001400
  -0.0079042000   -0.0052505000    0.0000004600
  -0.0025087900   -0.0070000500   -0.0180286000
  -0.0025116800   -0.0069987300    0.0180227600
  -0.0023327400   -0.0068239400    0.0253954400
  -0.0023308600   -0.0068298000   -0.0253851300

1
  0.0000000000000000   0.0000000000000000   0.0300000000000000
   0.0005135500   -0.0008878300   -0.2711259000
   0.0000354200   -0.0000612200    0.0698352200
   0.0003553800   -0.0003475500   -0.0337335200
   0.0004721900   -0.0001332800    0.0276091500
   0.0001207500   -0.0004806900   -0.0337336700
  -0.0001222200   -0.0004739200    0.0276089400
   0.0205366000   -0.0355685200    0.0262892000
  -0.0217633100    0.0376985900    0.0274922500
  -0.0048801400    0.0274209000    0.0156025000
   0.0043705100   -0.0285340400    0.0160822800
  -0.0213068900    0.0179353300    0.0156027400
   0.0225246300   -0.0180522900    0.0160819800
   0.0002019700   -0.0004024800    0.0212715900
   0.0001746900   -0.0003574100   -0.0017491900
   0.0054582700   -0.0032229700    0.0182380800
  -0.0081239900    0.0032705400    0.0201901400
   0.0001294000   -0.0064055600    0.0182411500
   0.0013031700    0.0086024100    0.0201970700

1
  0.0000000000000000   0.0000000000000000  -0.0300000000000000
   0.0005127800   -0.0008887900    0.2711270000
   0.0000356200   -0.0000618500   -0.0698371800
   0.0003556400   -0.0003487200    0.0337347400
   0.0004712800   -0.0001338500   -0.0276112600
   0.0001200300   -0.0004805500    0.0337348500
  -0.0001222600   -0.0004742500   -0.0276105400
  -0.0217646400    0.0376983600   -0.0274917300
   0.0205373500   -0.0355691700   -0.0262899300
   0.0043708200   -0.0285330600   -0.0160817500
  -0.0048812700    0.0274198800   -0.0156032000
   0.0225255800   -0.0180544200   -0.0160814900
  -0.0213066200    0.0179355000   -0.0156034300
   0.0002017400   -0.0004054900   -0.0212692400
   0.0001756300   -0.0003588600    0.0017483800
  -0.0081251500    0.0032689400   -0.0201912600
   0.0054550200   -0.0032187400   -0.0182464700
   0.0013021500    0.0086064100   -0.0201882000
   0.0001362800   -0.0064013400   -0.0182393000

7
  0.0150000000000000   0.0259807621135332   0.0000000000000000
  -0.0246001600    0.0137607000   -0.0207890900
  -0.0245969600    0.0137552300    0.0207884800
   0.0241662100    0.0249151000    0.0229632500
   0.0241668900    0.0249158600   -0.0229643300
   0.0303508500    0.0052530800   -0.0257566300
   0.0303546500    0.0052575500    0.0257561300
  -0.0938342200   -0.2016536400    0.0000000700
   0.0013273400    0.0044701500   -0.0000004200
   0.0011405700    0.0081561200    0.0000010400
   0.0054178000    0.0030567700   -0.0000017100
   0.0060417000    0.0088011300    0.0000011800
  -0.0002686100    0.0065975700   -0.0000018500
  -0.0132910400    0.0171621000    0.0297981600
  -0.0132912700    0.0171616300   -0.0297997700
   0.0148859500    0.0397716700   -0.0000350200
   0.0047121400    0.0028938700    0.0000363900
   0.0219091700   -0.0028493000   -0.0000344600
   0.0054089800    0.0085744000    0.0000385900

7
 -0.0150000000000000  -0.0259807621135332   0.0000000000000000
   0.0253174300   -0.0138234900    0.0214994900
   0.0253195000   -0.0138269400   -0.0215014500
  -0.0221237000   -0.0243635900   -0.0209091700
  -0.0221272100   -0.0243635200    0.0209070200
  -0.0319541800   -0.0060070000    0.0273354500
  -0.0319519000   -0.0060047800   -0.0273370600
   0.0948127600    0.2045167900   -0.0000001300
  -0.0014526000   -0.0041078100   -0.0000015000
  -0.0008413800   -0.0078104700    0.0000009400
  -0.0055471400   -0.0029577100   -0.0000025000
  -0.0066404300   -0.0065515300    0.0000012200
   0.0001247000   -0.0062872000   -0.0000027600
   0.0131323100   -0.0176811100   -0.0289040900
   0.0131311000   -0.0176830900    0.0289029500
  -0.0173291700   -0.0454223100   -0.0000444200
  -0.0047880200   -0.0025008400    0.0000361200
  -0.0212107200    0.0031091400   -0.0000329000
  -0.0058713400   -0.0082345400    0.0000528100

7
  0.0000000000000000   0.0000000000000000   0.0300000000000000
   0.0223167700   -0.0386557400    0.0274746400
  -0.0214464200    0.0371434300    0.0262458000
   0.0246332000    0.0197576900    0.0161654100
  -0.0230885900   -0.0185639500    0.0155523500
  -0.0294284500   -0.0114556800    0.0161654600
   0.0276218600    0.0107135100    0.0155523300
   0.0018878300   -0.0032691600   -0.2357709600
   0.0000914700   -0.0001567200    0.0035718700
   0.0001834600   -0.0000812900   -0.0022513400
  -0.0000270600   -0.0001781600    0.0037737300
  -0.0000199400   -0.0002006200   -0.0022510100
   0.0001681300   -0.0000659800    0.0037733700
  -0.0265108100    0.0458489600    0.0437996100
   0.0235709500   -0.0408867900    0.0403349900
  -0.0000801600    0.0001755300    0.0107343700
   0.0001560700   -0.0000026500    0.0031898100
  -0.0000369400    0.0000889400    0.0107397100
   0.0000086400   -0.0002113000    0.0031998900

7
  0.0000000000000000   0.0000000000000000  -0.0300000000000000
  -0.0214486200    0.0371473600   -0.0262461900
   0.0223190200   -0.0386589400   -0.0274747000
  -0.0230875600   -0.0185646900   -0.0155529300
   0.0246323800    0.0197579100   -0.0161656200
   0.0276186800    0.0107109100   -0.0155528200
  -0.0294261600   -0.0114530000   -0.0161654400
   0.0018876000   -0.0032690400    0.2357694100
   0.0000912100   -0.0001564000   -0.0035704600
   0.0001834600   -0.0000814000    0.0022514300
  -0.0000269500   -0.0001782600   -0.0037740600
  -0.0000201600   -0.0002006600    0.0022517800
   0.0001678500   -0.0000661500   -0.0037743600
   0.0235697200   -0.0408846900   -0.0403350200
  -0.0265074800    0.0458463400   -0.0437984100
  -0.0000817700    0.0001738100   -0.0107776800
   0.0001555600   -0.0000054000   -0.0031581500
  -0.0000360600    0.0000909900   -0.0107741400
   0.0000092700   -0.0002086900   -0.0031526400

13
  0.0150000000000000  -0.0259807621135332   0.0000000000000000
   0.0078046300   -0.0135232400    0.0000005500
   0.0013189600   -0.0022859900   -0.0000017700
   0.0106204600   -0.0164290300    0.0000001000
   0.0012717200   -0.0096924000   -0.0000015700
   0.0089197200   -0.0174095000   -0.0000008600
   0.0077563100   -0.0059456800   -0.0000011900
   0.0226591000   -0.0392449400   -0.0526122000
   0.0226595600   -0.0392451200    0.0526108600
   0.0214097500    0.0022432800    0.0245202800
   0.0214092300    0.0022426400   -0.0245217100
  -0.0126472700   -0.0174214500    0.0245204700
  -0.0126475800   -0.0174206500   -0.0245219600
  -0.1065616600    0.1845345900   -0.0000002600
   0.0017885600   -0.0031416800   -0.0000015700
  -0.0030951400   -0.0041757100   -0.0003722900
  -0.0031011400   -0.0041750300    0.0003704400
   0.0052153100    0.0005447700   -0.0003574900
   0.0052194900    0.0005451400    0.0003701900

13
 -0.0150000000000000   0.0259807621135332   0.0000000000000000
  -0.0114215000    0.0198054700   -0.0000013900
  -0.0015367300    0.0026706500   -0.0000015400
  -0.0085800000    0.0155592700    0.0000009100
  -0.0015976700    0.0093520900   -0.0000011400
  -0.0091963000    0.0152157700    0.0000013200
  -0.0073049500    0.0060662500   -0.0000010000
  -0.0209065300    0.0362147000    0.0475229300
  -0.0209056500    0.0362137700   -0.0475232600
  -0.0220864600   -0.0032477900   -0.0254812200
  -0.0220876800   -0.0032482900    0.0254809700
   0.0138538000    0.0175071700   -0.0254805400
   0.0138536600    0.0175086000    0.0254804300
   0.1045823900   -0.1812175400   -0.0000021000
  -0.0020171900    0.0034503400    0.0000015900
   0.0025140800    0.0042028300   -0.0003620600
   0.0025099600    0.0042037800    0.0003530600
  -0.0048372100   -0.0001271800   -0.0003536800
  -0.0048360100   -0.0001298600    0.0003667300

13
  0.0000000000000000   0.0000000000000000   0.0300000000000000
  -0.0003713700    0.0006420400    0.0212873700
  -0.0000123100    0.0000226700   -0.0017564500
   0.0007389500   -0.0000020200    0.0212876700
   0.0000262400   -0.0000020300   -0.0017566800
  -0.0003735400   -0.0006391100    0.0212872700
  -0.0000150600   -0.0000216200   -0.0017564700
  -0.0279065400    0.0483372200    0.0401598200
   0.0308598000   -0.0534475600    0.0439620400
   0.0558140300    0.0000010600    0.0401607400
  -0.0617174100    0.0000002100    0.0439611000
  -0.0279081600   -0.0483376900    0.0401610400
   0.0308569100    0.0534478800    0.0439608400
  -0.0000164600   -0.0000029200   -0.3230784500
  -0.0000113900   -0.0000078000    0.0053955700
  -0.0000060300    0.0000245500    0.0017156800
  -0.0000057800    0.0000250500    0.0016395000
   0.0000203300   -0.0000195100    0.0017203100
   0.0000277700   -0.0000204000    0.0016491000

13
  0.0000000000000000   0.0000000000000000  -0.0300000000000000
  -0.0003684000    0.0006441200   -0.0212874300
  -0.0000115900    0.0000243600    0.0017558600
   0.0007396700   -0.0000018800   -0.0212869200
   0.0000275500   -0.0000017300    0.0017558700
  -0.0003721200   -0.0006397200   -0.0212874500
  -0.0000169700   -0.0000216000    0.0017562700
   0.0308569300   -0.0534455700   -0.0439622900
  -0.0279076700    0.0483386200   -0.0401598700
  -0.0617150800    0.0000000100   -0.0439611600
   0.0558149800   -0.0000006500   -0.0401609400
   0.0308562300    0.0534469100   -0.0439609100
  -0.0279092900   -0.0483367000   -0.0401612400
  -0.0000232600   -0.0000218800    0.3230790200
  -0.0000195100   -0.0000256400   -0.0053963600
  -0.0000284500    0.0000435100   -0.0016550100
  -0.0000312100    0.0000456800   -0.0017125800
   0.0000514200   -0.0000227300   -0.0016503900
   0.0000567500   -0.0000250900   -0.0017044500

15
  0.0150000000000000  -0.0259807621135332   0.0000000000000000
   0.0042884500   -0.0059590600    0.0064817500
   0.0042919300   -0.0059641200   -0.0064817000
   0.0033270500   -0.0075850900    0.0014772800
   0.0033245000   -0.0075852200   -0.0014773500
   0.0029966000   -0.0070611700   -0.0055743800
   0.0029990300   -0.0070579600    0.0055748800
  -0.0125185600   -0.0238638600    0.0000010400
   0.0041477300   -0.0021976900   -0.0000006500
   0.0250430600   -0.0399366600    0.0000016200
  -0.0008846900   -0.0057052200   -0.0000016400
   0.0157382100   -0.0004102500    0.0000022900
   0.0047578900   -0.0084576700   -0.0000020900
   0.0054866500   -0.0003276800    0.0002516100
   0.0054892300   -0.0003275300   -0.0002508500
  -0.0938062900    0.1605081300   -0.0000027300
  -0.0030111800    0.0041908900   -0.0000044700
   0.0088008900   -0.0173344300    0.0000004600
   0.0195295100   -0.0249254200    0.0000049500

15
 -0.0150000000000000   0.0259807621135332   0.0000000000000000
  -0.0036836000    0.0072028900   -0.0059268000
  -0.0036823500    0.0071990900    0.0059253000
  -0.0026718700    0.0041456400    0.0000995500
  -0.0026721800    0.0041473000   -0.0001012200
  -0.0027791800    0.0070773800    0.0080760300
  -0.0027767800    0.0070772200   -0.0080775000
   0.0136788500    0.0268825900   -0.0000019100
  -0.0044938200    0.0026777600    0.0000005500
  -0.0212041000    0.0361442200   -0.0000008700
   0.0009421200    0.0061272900   -0.0000005100
  -0.0163835300   -0.0003234900   -0.0000005000
  -0.0048098500    0.0087172800   -0.0000008300
  -0.0044570300   -0.0005766000    0.0001670600
  -0.0044557400   -0.0005760200   -0.0001677700
   0.0895973500   -0.1571699100   -0.0000224000
   0.0012811000   -0.0034910300    0.0000209900
  -0.0103717200    0.0185506700   -0.0000209700
  -0.0210576900    0.0261877300    0.0000318100

15
  0.0000000000000000   0.0000000000000000   0.0300000000000000
   0.0283577700    0.0044702300    0.0200849100
  -0.0260356300   -0.0035613800    0.0183060800
  -0.0103109900   -0.0267956300    0.0200850000
   0.0099336800    0.0243272700    0.0183062100
  -0.0180528700    0.0223253300    0.0200849600
   0.0161004000   -0.0207664700    0.0183062400
  -0.0000833800   -0.0005888800    0.0107079500
   0.0000069000   -0.0002027400    0.0031927900
  -0.0004696800    0.0003691500    0.0107086600
  -0.0001805400    0.0000977500    0.0031919600
   0.0005516000    0.0002214100    0.0107091200
   0.0001721300    0.0001066300    0.0031916000
  -0.0000102300   -0.0000062500    0.0016767400
  -0.0000082300   -0.0000089000    0.0016825600
  -0.0000110400    0.0000213800   -0.1325208700
  -0.0000089200    0.0000177700   -0.0363296100
   0.0000223800   -0.0000122700   -0.0151148800
   0.0000266600   -0.0000144000    0.0237305900

15
  0.0000000000000000   0.0000000000000000  -0.0300000000000000
  -0.0260368200   -0.0035549800   -0.0183072600
   0.0283602900    0.0044704400   -0.0200840600
   0.0099371500    0.0243264900   -0.0183073500
  -0.0103086100   -0.0267952200   -0.0200844600
   0.0160971000   -0.0207688800   -0.0183072500
  -0.0180511100    0.0223278500   -0.0200843500
  -0.0000834500   -0.0005859500   -0.0107098900
   0.0000065000   -0.0001998300   -0.0031913600
  -0.0004665900    0.0003694000   -0.0107091800
  -0.0001771800    0.0000983200   -0.0031921300
   0.0005509100    0.0002205900   -0.0107088400
   0.0001714200    0.0001054900   -0.0031924300
  -0.0000190900   -0.0000305800   -0.0016784700
  -0.0000178200   -0.0000332900   -0.0016813400
  -0.0000334500    0.0000393200    0.1324778000
  -0.0000365200    0.0000407000    0.0363609900
   0.0000502900   -0.0000141400    0.0150831200
   0.0000569700   -0.0000157100   -0.0236835100
