96
3

1
  0.0100000000000000   0.0000000000000000   0.0000000000000000
  -0.1515214900    0.0002930700   -0.0002271400
  -0.0014376200    0.0003620400   -0.0004297100
   0.0000504100    0.0004287400    0.0006715300
   0.0002171600    0.0004783400   -0.0000988700
  -0.0000151700   -0.0006665500   -0.0003639400
   0.0001626500    0.0001696000   -0.0004803800
  -0.0006489600    0.0000986600   -0.0001706200
   0.0000254500    0.0001956700   -0.0001949700
  -0.0012952500    0.0012692900   -0.0059809900
   0.0012858900   -0.0001596700   -0.0004108500
  -0.0004929400   -0.0002161000   -0.0000413300
   0.0006253800    0.0000192000    0.0001686400
  -0.0012856600    0.0018796600    0.0041519700
   0.0012949500    0.0000519200   -0.0002015900
  -0.0005000800   -0.0004597600    0.0001783400
   0.0006292300    0.0000322900   -0.0002257500
   0.0053967000   -0.0059577600   -0.0033061900
   0.0055051100    0.0041684500    0.0039234100
   0.0003146500   -0.0003990500    0.0000555700
   0.0003146100   -0.0001870000    0.0003900100
   0.0003093300   -0.0000396500    0.0006877300
   0.0003126900    0.0001804700   -0.0002461500
  -0.0000407700    0.0001656400    0.0003818600
  -0.0000428600   -0.0002224600    0.0000091300
   0.0007920900    0.0006888000    0.0004526800
   0.0004640900   -0.0033393300   -0.0018915600
   0.0007871200   -0.0002398300    0.0002137400
   0.0004535900    0.0038764700   -0.0012770600
   0.0004844000    0.0003764600   -0.0000284000
   0.0003860000    0.0000574600   -0.0000592900
   0.0004915000    0.0000089900   -0.0000185200
   0.0003862800    0.0003854200    0.0001535700
  -0.0032238900   -0.0007954800    0.0003443500
   0.0002279200   -0.0002882000   -0.0005945800
  -0.0010128800   -0.0005303800    0.0000044300
   0.0002745000   -0.0000735100   -0.0001952900
  -0.0032241000   -0.0010738500    0.0013315200
   0.0002404700   -0.0001871900   -0.0002056000
  -0.0010204700    0.0000602700   -0.0002160000
   0.0002805400    0.0000763800   -0.0000716800
   0.0003191300    0.0089740100   -0.0010552200
   0.0012174400    0.0003881000    0.0000616700
   0.0003162700   -0.0064173100   -0.0008060800
   0.0012342900    0.0002133400   -0.0005260900
  -0.0004967200    0.0002235100   -0.0001836600
   0.0003772700   -0.0000703400    0.0000765100
  -0.0005046100   -0.0000737300   -0.0002943300
   0.0003807200    0.0000972000   -0.0000791400
   0.0118800100   -0.0003600600    0.0089194500
   0.0121043300   -0.0013126000   -0.0064871900
   0.0001161500    0.0005947600    0.0002251600
   0.0001242200    0.0002075200   -0.0000729500
   0.0001293700    0.0000043000    0.0003760700
   0.0001294700    0.0002131800    0.0002100500
  -0.0000693400    0.0001983900   -0.0000684400
  -0.0000672500    0.0000720600    0.0000967500
   0.0112598800    0.0035658300   -0.0040204000
   0.0227643900   -0.0142946000    0.0143047100
   0.0002733900   -0.0007247000    0.0001000600
  -0.0034986400    0.0040440000    0.0006474500
   0.0004802500   -0.0001273400    0.0007275800
  -0.0032195000   -0.0006415600   -0.0035739300
   0.0003664800   -0.0002056300    0.0002049900
   0.0001554600   -0.0001051300    0.0001258800
   0.0000889100   -0.0020729400   -0.0011080800
  -0.0004545900    0.0005220300    0.0001552600
   0.0000189100    0.0004763700   -0.0016338300
  -0.0015929000   -0.0002971400    0.0009541300
   0.0006297100   -0.0006038400    0.0006628900
  -0.0008501400    0.0006754200   -0.0004681100
  -0.0000230600    0.0013015300    0.0008638100
  -0.0003074600    0.0000936300   -0.0000191200
  -0.0007835200    0.0001646400   -0.0001675200
  -0.0014865400    0.0002238900   -0.0026176500
  -0.0009816700    0.0014738900    0.0002337400
   0.0281786200    0.0019359800    0.0006684700
  -0.0002275100    0.0001359600   -0.0002530300
   0.0006437600   -0.0000496500    0.0001500000
  -0.0004504500    0.0001737000    0.0000034000
   0.0004835100   -0.0006991300   -0.0001642600
  -0.0011144700   -0.0004748700   -0.0012395200
   0.0283669500   -0.0009390300   -0.0057695200
  -0.0004675300   -0.0004304500    0.0000915400
   0.0003579000    0.0005922400    0.0004821600
  -0.0004851100    0.0000457700    0.0000356300
  -0.0009982800    0.0036767500    0.0004113600
  -0.0002122400   -0.0000716000    0.0000633100
   0.0007356700    0.0001902500   -0.0000422400
   0.0297455200    0.0024045300    0.0008491000
   0.0091053000   -0.0022484500    0.0019491400
   0.0008897600    0.0010132800    0.0002005000
  -0.0006802200   -0.0019441100   -0.0000020500
   0.0006279100    0.0000255000   -0.0011847500
  -0.0005778600   -0.0001380400    0.0016135800
   0.0002855400    0.0001343300    0.0000416600
  -0.0001874100   -0.0002411700    0.0001490600

1
 -0.0100000000000000   0.0000000000000000   0.0000000000000000
   0.1526927100    0.0011609500   -0.0010859200
   0.0011617600   -0.0000901700    0.0001644300
  -0.0003070300   -0.0001612300   -0.0009208100
  -0.0004835400   -0.0002340600   -0.0001658400
  -0.0002341500    0.0009213400    0.0000852900
  -0.0004274200    0.0000871300    0.0002299800
   0.0003915900    0.0001598900   -0.0000895700
  -0.0002829300    0.0000634100   -0.0000601400
   0.0015918900   -0.0015599300    0.0058140200
  -0.0010329300   -0.0001143900    0.0001433300
   0.0007621100   -0.0000438700   -0.0002146300
  -0.0003748800   -0.0002790900   -0.0004284200
   0.0015945100   -0.0021437500   -0.0043852000
  -0.0010256900   -0.0003182800   -0.0000850800
   0.0007537600    0.0002094500   -0.0004435800
  -0.0003726900   -0.0002862200   -0.0000315100
  -0.0057826600    0.0058355400    0.0036513800
  -0.0056792200   -0.0043642100   -0.0035755500
  -0.0005620200    0.0001522900    0.0002006000
  -0.0005651400   -0.0000723000   -0.0001293800
  -0.0005744100   -0.0002155900   -0.0004344000
  -0.0005711900   -0.0004406000    0.0004983600
  -0.0002202000   -0.0004286700   -0.0001257200
  -0.0002166200   -0.0000307300    0.0002486600
  -0.0005421000   -0.0004372000   -0.0002135700
  -0.0002146700    0.0036115700    0.0021374900
  -0.0005453900    0.0004987600    0.0000415500
  -0.0002253100   -0.0036182700    0.0015509100
  -0.0002398000   -0.0001270100    0.0002881300
  -0.0001267300    0.0002068900    0.0003031100
  -0.0002340600    0.0002418600    0.0002798100
  -0.0001314900   -0.0001348900    0.0001029300
   0.0029697500    0.0005261300   -0.0006538200
  -0.0005004100    0.0000361200    0.0003417100
   0.0007737200    0.0002678400   -0.0002629100
  -0.0005449100   -0.0001759700   -0.0000480200
   0.0029659000    0.0007629300   -0.0015305400
  -0.0004940000   -0.0000643000   -0.0000499500
   0.0007680900   -0.0003156900   -0.0000410900
  -0.0005381700   -0.0003333800   -0.0001866900
  -0.0000081500   -0.0088301900    0.0007806600
  -0.0009863100   -0.0001206700   -0.0003110800
  -0.0000117700    0.0066658200    0.0005174500
  -0.0009728700    0.0000545900    0.0002667700
   0.0007649000    0.0000313900   -0.0000683900
  -0.0001260900    0.0003326200   -0.0003385200
   0.0007621000    0.0003367400    0.0000315800
  -0.0001249200    0.0001565500   -0.0001815600
  -0.0123899500    0.0006387300   -0.0088855800
  -0.0121648200    0.0015547000    0.0065957900
  -0.0003806200   -0.0003407100    0.0000303300
  -0.0003748700    0.0000527500    0.0003351500
  -0.0003812300    0.0002666500   -0.0001264700
  -0.0003855300    0.0000413800    0.0000496300
  -0.0001870100    0.0000514700    0.0003368400
  -0.0001890900    0.0001897800    0.0001543900
  -0.0112290700   -0.0038945300    0.0043663900
  -0.0220380600    0.0134882900   -0.0134762000
  -0.0000175600    0.0004736400    0.0001531800
   0.0037242300   -0.0043447000   -0.0004033100
  -0.0002261300   -0.0001331500   -0.0004738100
   0.0034590500    0.0004109200    0.0038823700
  -0.0001072400   -0.0000469900    0.0000493800
   0.0001034900   -0.0001593000    0.0001340200
  -0.0000956900    0.0020975300    0.0011164700
   0.0004619800   -0.0005292100   -0.0001534400
  -0.0000214800   -0.0004786000    0.0016592100
   0.0015934400    0.0002955500   -0.0009525200
  -0.0006312000    0.0006085200   -0.0006756900
   0.0008566300   -0.0006793100    0.0004734000
   0.0000199000   -0.0013160800   -0.0008677100
   0.0003100100   -0.0000957200    0.0000230500
   0.0007802700   -0.0001734100    0.0001619400
   0.0014626700   -0.0001998200    0.0025756000
   0.0009957000   -0.0014984600   -0.0002361500
  -0.0279501100   -0.0015710700   -0.0004288500
   0.0002312800   -0.0001391600    0.0002563800
  -0.0006443700    0.0000557600   -0.0001513800
   0.0004547400   -0.0001762900   -0.0000048900
  -0.0004822400    0.0007078900    0.0001645800
   0.0011187100    0.0004821100    0.0012680100
  -0.0281773600    0.0006824300    0.0053598500
   0.0004731500    0.0004336200   -0.0000909200
  -0.0003640000   -0.0005942100   -0.0004828900
   0.0004791600   -0.0000371700   -0.0000291100
   0.0009904000   -0.0036453500   -0.0004244300
   0.0002140300    0.0000727500   -0.0000644800
  -0.0007373700   -0.0001917500    0.0000378200
  -0.0320184100   -0.0030895900   -0.0001720000
  -0.0088118900    0.0022176500   -0.0019064400
  -0.0009024000   -0.0010238800   -0.0001929600
   0.0006756100    0.0019439800    0.0000013900
  -0.0006407700   -0.0000261300    0.0012005800
   0.0005697500    0.0001363300   -0.0016136800
  -0.0002865400   -0.0001386900   -0.0000413400
   0.0001878600    0.0002417200   -0.0001477400

65
  0.0100000000000000   0.0000000000000000   0.0000000000000000
  -0.0000177800   -0.0008242700   -0.0014419700
  -0.0005906700    0.0001464000    0.0004768400
  -0.0000910800    0.0017778300   -0.0006064200
  -0.0017222200   -0.0007289100    0.0019397700
   0.0005061500   -0.0000282400   -0.0002261300
  -0.0009908800    0.0005944900   -0.0008039600
  -0.0001387000    0.0012475300    0.0001658400
  -0.0004377200   -0.0005369500   -0.0006530500
   0.0006223900   -0.0003246200   -0.0005967400
  -0.0003284400   -0.0001738300   -0.0005681400
   0.0007791800   -0.0001374000   -0.0000819100
  -0.0001005000   -0.0002792900   -0.0002005700
   0.0283725200   -0.0004729100   -0.0010135800
  -0.0008670600    0.0010528300    0.0004619100
  -0.0013243700   -0.0020370700    0.0034988500
  -0.0006540800   -0.0017387200    0.0000677000
   0.0006022200   -0.0002930300    0.0000018200
  -0.0003379500   -0.0003898900   -0.0001092600
  -0.0011489800   -0.0027547200   -0.0021136800
  -0.0006068500    0.0000309000   -0.0018123000
   0.0002231000    0.0001088900    0.0001512700
  -0.0005959500   -0.0001305000    0.0002639000
   0.0280071500    0.0003232500    0.0026858800
  -0.0012472500   -0.0002876600    0.0011606200
   0.0297325900   -0.0051051000   -0.0012668900
   0.0092815100    0.0005469000   -0.0000856300
   0.0010062300   -0.0011270200    0.0008332800
  -0.0005385200    0.0001482000    0.0001871900
   0.0007441900    0.0006081900   -0.0013546200
  -0.0004416100    0.0000927600   -0.0000508800
   0.0004133500    0.0002178000   -0.0000504700
  -0.0000549300    0.0001946200   -0.0000105800
   0.0001607000   -0.0000376800   -0.0003005400
  -0.0003218200   -0.0000616400   -0.0002678200
   0.0005258000    0.0003520900   -0.0016179000
  -0.0007096500   -0.0001701300   -0.0002853900
   0.0007862800   -0.0013856600    0.0005763800
  -0.0008169900   -0.0000819100   -0.0000763400
   0.0320342400   -0.0060341500   -0.0022614700
   0.0086402000    0.0002935400   -0.0003351700
   0.0285350700    0.0007729900    0.0027952100
  -0.0009908700   -0.0000348200    0.0008788100
   0.0004996300    0.0003578500   -0.0000998900
  -0.0003388500    0.0001337100    0.0000054400
  -0.0008364900   -0.0024366900   -0.0023531100
  -0.0003579200    0.0002785600   -0.0020740200
   0.0008627200   -0.0000340600   -0.0002760000
  -0.0000869400   -0.0001272700   -0.0003757400
  -0.0016296500   -0.0018178200    0.0038174500
  -0.0009114500   -0.0014886300    0.0003230200
   0.0277529000   -0.0005606200   -0.0006079000
  -0.0011094800    0.0013361900    0.0007208500
   0.0005154900    0.0001417300    0.0001694700
  -0.0003530800   -0.0000226200    0.0000609600
   0.0003435700   -0.0000711500   -0.0003536400
  -0.0005822600    0.0000902500   -0.0003071600
   0.0000948300    0.0009796800    0.0004227400
  -0.0001719800   -0.0008019800   -0.0003964000
   0.0007515300   -0.0002843200    0.0000345800
  -0.0007259900    0.0003463600   -0.0005462000
   0.0001338100    0.0015170200   -0.0003498700
  -0.0014612500   -0.0010080900    0.0022294700
   0.0002088000   -0.0010782400   -0.0011788900
  -0.0003299000   -0.0001046400    0.0007406000
  -0.1978094500    0.0075705200   -0.0075484600
   0.0082397800    0.0010699900    0.0022656000
   0.0007069900   -0.0022679500   -0.0026339300
   0.0012577400   -0.0005012800   -0.0004182900
   0.0002113200    0.0026310100   -0.0010685800
   0.0011537000    0.0000779300    0.0004987300
  -0.0004538800    0.0004219800   -0.0000756500
   0.0000989000   -0.0001129900    0.0001119200
   0.0024397800   -0.0003913200   -0.0015869100
   0.0024563400    0.0008291000    0.0091168500
  -0.0001641500    0.0002787300    0.0001597700
  -0.0001784100   -0.0004302600    0.0004141100
   0.0024476500    0.0008281700    0.0090260500
   0.0024603500   -0.0004235100   -0.0015798300
  -0.0001616500   -0.0004227200    0.0004165200
  -0.0001771300    0.0002926100    0.0001611500
   0.0025608600   -0.0015970400   -0.0006031400
   0.0025509500    0.0091223500   -0.0021935100
   0.0025554000    0.0090192100   -0.0021776100
   0.0025410600   -0.0015695600   -0.0006364900
  -0.0001347900    0.0001622600    0.0006148000
  -0.0001436500    0.0004157900    0.0000537900
  -0.0001364700    0.0004144300    0.0000707900
  -0.0001513500    0.0001605700    0.0006149200
  -0.0040736700   -0.0006178300   -0.0008560400
   0.0014726200    0.0006207300    0.0004298800
  -0.0040504200   -0.0021674500    0.0004066600
   0.0014695300    0.0000620000   -0.0002893200
  -0.0040614600   -0.0022039000    0.0004085500
   0.0014740400    0.0000620300   -0.0002819300
  -0.0040378600   -0.0006209600   -0.0008043500
   0.0014712700    0.0006090600    0.0004243100
