48   
38   

1    
  0.0100000000000000  -0.0000000001998174   0.0000000000000000
  -0.0337343100    0.0000042500   -0.0001990800
  -0.0001857000    0.0000006900    0.0000000900
   0.0006011100    0.0001065500   -0.0000000900
   0.0001394500    0.0000239200    0.0000002200
   0.0159047200    0.0028617600   -0.0006740100
   0.0010744400   -0.0007537000   -0.0006841300
   0.0003146400    0.0007729000    0.0003987900
   0.0021924500    0.0050960600   -0.0032469800
  -0.0014779000    0.0000325100    0.0006855700
  -0.0048914300    0.0038084700    0.0006853700
  -0.0006080600   -0.0052613700    0.0053937800
  -0.0003987900   -0.0017517600   -0.0018017900
  -0.0002565700    0.0012130300   -0.0006137900
   0.0016354700    0.0055127100    0.0030078000
  -0.0001315200   -0.0046561000   -0.0051506900
   0.0000503300   -0.0011659200    0.0020202900
   0.0000423500   -0.0005346400    0.0004720900
  -0.0002139600   -0.0013010400   -0.0020391500
  -0.0001312200   -0.0003019100   -0.0003727700
  -0.0011607300   -0.0006417100    0.0000291900
  -0.0030869600    0.0000924600    0.0007077500
  -0.0012508300    0.0004412400    0.0011440000
   0.0004231800    0.0009403700    0.0003405200
   0.0004472700    0.0001643100    0.0007567400
   0.0010182100    0.0009972000   -0.0012595400
   0.0010642100   -0.0004562300   -0.0005194000
   0.0019965600    0.0002826800   -0.0003587100
   0.0007635400    0.0001575300   -0.0000575700
   0.0076107300   -0.0029303900    0.0031957900
  -0.0000704400    0.0002692000    0.0001884500
   0.0020935600    0.0000574500    0.0003566500
   0.0008761700   -0.0000739300    0.0000451900
   0.0000243600    0.0002553800    0.0001388500
   0.0030705600    0.0012850100   -0.0021584500
   0.0003969100   -0.0001969800    0.0002150600
   0.0034551100    0.0008068500    0.0024976700
  -0.0001681700    0.0002106500   -0.0003829200
  -0.0011936200   -0.0001326300   -0.0007752900
   0.0006689000    0.0003119200    0.0006428800
   0.0007129500   -0.0011475000   -0.0001014600
   0.0065983300   -0.0031133600   -0.0033229800
  -0.0005208800   -0.0001057800   -0.0005424000
  -0.0023853000   -0.0002511900   -0.0000934100
  -0.0005688500    0.0000978900   -0.0005320100
  -0.0000938500    0.0008994200    0.0004135100
  -0.0000658800    0.0001271900   -0.0000021400
  -0.0001873100   -0.0006466900   -0.0004641200
  -0.0003932800   -0.0014068000    0.0020166300

1    
  0.0000000000000000   0.0000000000000000   0.0100000000000000
   0.0000000000    0.0000000000   -0.0154540600
   0.0000000000    0.0000000000    0.0011901600
   0.0000000000    0.0000000000   -0.0011155700
   0.0000000000    0.0000000000    0.0008111100
   0.0000000000    0.0000000000   -0.0049528100
   0.0000000000    0.0000000000    0.0029072500
   0.0025563800    0.0014327700    0.0029430500
  -0.0047452300   -0.0066435700    0.0023271900
   0.0000000000    0.0000000000    0.0042727100
   0.0000000000    0.0000000000   -0.0035884400
   0.0062533600   -0.0053521700    0.0025360700
  -0.0018556800    0.0019603300    0.0031615500
  -0.0025563800   -0.0014327700    0.0029430500
   0.0047452300    0.0066435700    0.0023271900
  -0.0062533600    0.0053521700    0.0025360700
   0.0018556800   -0.0019603300    0.0031615500
   0.0007490500    0.0006440700   -0.0010280200
  -0.0020828400   -0.0016202000   -0.0009260700
   0.0008896000   -0.0004571700   -0.0017851400
  -0.0016846000   -0.0004032500    0.0013904100
   0.0000644300   -0.0000244100    0.0007086700
   0.0001864800   -0.0000666600   -0.0013251500
   0.0000999000    0.0017415900    0.0021630300
   0.0000483600   -0.0008326000   -0.0010186600
   0.0004011000    0.0008651800   -0.0019323200
   0.0003685600    0.0007541300    0.0000876000
  -0.0017285600    0.0022804700   -0.0008742100
   0.0005325500   -0.0005046200   -0.0010356800
   0.0024561000   -0.0011767100    0.0022198900
   0.0003694200    0.0004753200   -0.0012866700
   0.0017285600   -0.0022804700   -0.0008742100
  -0.0005325500    0.0005046200   -0.0010356800
   0.0000976300    0.0000808100   -0.0009353600
  -0.0015334900   -0.0019553900    0.0025746400
  -0.0000976300   -0.0000808100   -0.0009353600
   0.0015334900    0.0019553900    0.0025746400
  -0.0008896000    0.0004571700   -0.0017851400
   0.0016846000    0.0004032500    0.0013904100
  -0.0004011000   -0.0008651800   -0.0019323200
  -0.0003685600   -0.0007541300    0.0000876000
  -0.0024561000    0.0011767100    0.0022198900
  -0.0003694200   -0.0004753200   -0.0012866700
  -0.0000644300    0.0000244100    0.0007086700
  -0.0001864800    0.0000666600   -0.0013251500
  -0.0000999000   -0.0017415900    0.0021630300
  -0.0000483600    0.0008326000   -0.0010186600
  -0.0007490500   -0.0006440700   -0.0010280200
   0.0020828400    0.0016202000   -0.0009260700

3    
  0.0100000000000000  -0.0000000001998174   0.0000000000000000
   0.0006010500   -0.0001068400    0.0000006800
   0.0001385500   -0.0000227600   -0.0000002800
  -0.0281332000    0.0000032200   -0.0003792200
  -0.0001609200    0.0000003800   -0.0000004300
  -0.0052096900   -0.0002823300   -0.0006823900
  -0.0006682800    0.0003485400   -0.0006823100
   0.0009502700   -0.0001643800   -0.0003220300
   0.0027523600    0.0028060600    0.0032252100
   0.0017911500    0.0000425500    0.0006791200
   0.0139081300    0.0000854400    0.0006862800
   0.0022292500   -0.0057210900   -0.0034506500
  -0.0002185700   -0.0012243400    0.0018305100
   0.0003628600    0.0002796800    0.0001004500
   0.0021219800    0.0032746700   -0.0034642800
   0.0026833600   -0.0051289900    0.0036696600
   0.0002160700   -0.0006631500   -0.0016284500
   0.0000600100    0.0012709700   -0.0002901800
  -0.0000852900   -0.0003319900    0.0000144500
   0.0002585900   -0.0001655500   -0.0003699500
   0.0013909100    0.0011767400   -0.0013631700
   0.0012767700   -0.0004034500    0.0002491100
   0.0001201300   -0.0001471000   -0.0002289500
   0.0089595700   -0.0011359400   -0.0040750600
   0.0001110900    0.0000385100    0.0001355000
  -0.0007135100   -0.0001782900    0.0008514400
  -0.0041402700    0.0002180000   -0.0006721600
  -0.0025781900    0.0008540100    0.0001494500
  -0.0006498100    0.0002740000   -0.0000991100
   0.0014933600    0.0023498300   -0.0009455400
   0.0003956400    0.0003458100   -0.0004194300
  -0.0024630200    0.0006113600   -0.0001569700
  -0.0005474900    0.0000441300    0.0000916200
  -0.0006086900    0.0003815500    0.0003839700
  -0.0017979800    0.0005358300    0.0001506400
  -0.0002300300   -0.0000762600   -0.0000373400
  -0.0014118100    0.0000640000    0.0002120500
   0.0001984800    0.0003331900   -0.0003980200
   0.0013351900    0.0016692400    0.0005826900
  -0.0010407700   -0.0008577200   -0.0014601400
  -0.0044773500   -0.0004572000    0.0000848600
   0.0010430600    0.0019826300    0.0006006100
  -0.0000621700   -0.0000289900    0.0000777000
   0.0019609000   -0.0007254400    0.0003670400
   0.0007989500   -0.0004759500    0.0008392800
   0.0089294600   -0.0013857600    0.0052157800
  -0.0003870800   -0.0000187200    0.0006347300
  -0.0001748900    0.0011605000    0.0002999600
  -0.0003281400   -0.0004485800   -0.0000067500

3    
  0.0000000000000000   0.0000000000000000   0.0100000000000000
   0.0000000000    0.0000000000   -0.0011171600
   0.0000000000    0.0000000000    0.0008100200
   0.0000000000    0.0000000000   -0.0242019300
   0.0000000000    0.0000000000    0.0011455300
   0.0000000000    0.0000000000   -0.0086992000
   0.0000000000    0.0000000000    0.0022289500
  -0.0005000500   -0.0005289200    0.0023739800
   0.0045765500    0.0031022700    0.0028754900
   0.0000000000    0.0000000000    0.0035926200
   0.0000000000    0.0000000000   -0.0073115000
  -0.0035744100    0.0039986100    0.0030825400
   0.0000759300   -0.0010652000    0.0025908800
   0.0005000500    0.0005289200    0.0023739800
  -0.0045765500   -0.0031022700    0.0028754900
   0.0035744100   -0.0039986100    0.0030825400
  -0.0000759300    0.0010652000    0.0025908800
   0.0000866500    0.0004352800   -0.0006565200
   0.0006862800    0.0014866700    0.0000072800
   0.0003891200   -0.0007575500   -0.0016334400
  -0.0007999800   -0.0041675700    0.0041873500
  -0.0003047600    0.0022559300    0.0014440400
  -0.0000695200   -0.0003251800   -0.0009629900
  -0.0038554600    0.0009345300    0.0050450400
  -0.0002515800   -0.0003299200   -0.0008623500
   0.0006585300    0.0006093400   -0.0015678400
  -0.0019148300    0.0003792100    0.0008199200
   0.0013762100   -0.0004450900    0.0000007700
   0.0003402400    0.0001461300   -0.0006681300
   0.0001652200   -0.0007172500    0.0011148500
   0.0003059900    0.0006119800   -0.0011094900
  -0.0013762100    0.0004450900    0.0000007700
  -0.0003402400   -0.0001461300   -0.0006681300
   0.0002389600    0.0001513200   -0.0007633100
  -0.0010939500    0.0002928200    0.0014582300
  -0.0002389600   -0.0001513200   -0.0007633100
   0.0010939500   -0.0002928200    0.0014582300
  -0.0003891200    0.0007575500   -0.0016334400
   0.0007999800    0.0041675700    0.0041873500
  -0.0006585300   -0.0006093400   -0.0015678400
   0.0019148300   -0.0003792100    0.0008199200
  -0.0001652200    0.0007172500    0.0011148500
  -0.0003059900   -0.0006119800   -0.0011094900
   0.0003047600   -0.0022559300    0.0014440400
   0.0000695200    0.0003251800   -0.0009629900
   0.0038554600   -0.0009345300    0.0050450400
   0.0002515800    0.0003299200   -0.0008623500
  -0.0000866500   -0.0004352800   -0.0006565200
  -0.0006862800   -0.0014866700    0.0000072800

5    
  0.0100000000000000  -0.0000000001998174   0.0000000000000000
   0.0159056400   -0.0038077000   -0.0000062300
   0.0010759200   -0.0000322200   -0.0000018800
  -0.0052098800   -0.0000818600    0.0000055600
  -0.0006708800   -0.0000407400   -0.0000020100
  -0.2314389800    0.0118309800   -0.0015417800
  -0.0032886900    0.0011692800   -0.0006988100
   0.0091746200   -0.0111949100   -0.0055568500
   0.0053094300   -0.0079115600    0.0066091700
   0.0121963700   -0.0000000300    0.0007098400
   0.0152836500   -0.0000000600    0.0007081200
   0.0152810500    0.0540387200   -0.0590358900
   0.0005170300    0.0023801300    0.0038031200
   0.0085152700   -0.0107792800    0.0052575300
   0.0046378100   -0.0075393300   -0.0068539900
   0.0158909900    0.0549633700    0.0596824300
   0.0009517600    0.0029697800   -0.0036077100
  -0.0012749700    0.0058306800   -0.0050471600
  -0.0008454900    0.0025617700    0.0052451700
   0.0008936200    0.0010378300   -0.0009698900
   0.0032737800   -0.0000117400    0.0019042000
   0.0451200400   -0.0263373500   -0.0300768700
   0.0011386500   -0.0005029800   -0.0011797300
  -0.0004805500   -0.0119334700   -0.0002336200
  -0.0004718800   -0.0003962500   -0.0004011500
  -0.0073713300   -0.0056315200    0.0086336100
  -0.0030076200    0.0002480700    0.0003345700
  -0.0143028200   -0.0024905800    0.0059089700
  -0.0020156200    0.0001270300    0.0000923500
   0.0527736000   -0.0082638000    0.0161385700
   0.0007991100   -0.0000204500   -0.0005086600
  -0.0140322800   -0.0027001100   -0.0058857100
  -0.0019077700   -0.0001065400   -0.0000982100
  -0.0024230900    0.0000071800    0.0007964800
  -0.0052131100    0.0037219600    0.0017653300
  -0.0020300100   -0.0004555400   -0.0004144300
  -0.0048349100    0.0033057700   -0.0013843400
   0.0008756700    0.0015576400    0.0002567100
   0.0031939300    0.0005447400   -0.0027250900
  -0.0077551600   -0.0063378000   -0.0092740300
  -0.0033507300   -0.0004379000   -0.0009502200
   0.0561268700   -0.0072223200   -0.0159105700
   0.0003504000   -0.0003932000    0.0001623200
   0.0454181600   -0.0265527500    0.0305900700
   0.0018258100   -0.0008494900    0.0018045600
  -0.0009879000   -0.0119243700    0.0009359300
  -0.0009844200   -0.0004344100    0.0011605500
  -0.0015244000    0.0056937000    0.0050487500
  -0.0011066800    0.0024016100   -0.0051890300

5    
  0.0000000001998174   0.0100000000000000   0.0000000000000000
   0.0028611000   -0.0048910200    0.0000130200
  -0.0007542400   -0.0014780500   -0.0000100000
  -0.0002851900    0.0139108900   -0.0000031300
   0.0003450400    0.0017923000   -0.0000099000
   0.0119005000   -0.3362428800   -0.0061425700
   0.0011695100   -0.0086646400   -0.0007314500
  -0.0260275100    0.0045128900    0.0361240600
  -0.0171276900   -0.0059617200   -0.0107890800
   0.0000003700    0.0121953900    0.0006676300
   0.0000001200    0.0152830600    0.0007220500
   0.0312227900    0.0241733800   -0.0279609100
  -0.0010360200   -0.0009651000    0.0001610800
  -0.0267074000    0.0049099900   -0.0364993300
  -0.0175004800   -0.0054684200    0.0104187600
   0.0318369900    0.0246190700    0.0283339400
  -0.0006057400   -0.0003787100    0.0000118400
   0.0039390100    0.0092155100    0.0018259400
   0.0009281000    0.0071240700    0.0008660600
  -0.0005119600   -0.0000896600    0.0057563500
   0.0098272100    0.0033468700   -0.0130453300
  -0.0252138600    0.1204138600    0.0809355500
  -0.0019986700    0.0032032200    0.0034243900
  -0.0028195600   -0.0079049000   -0.0009001400
   0.0003779700   -0.0010106500    0.0002875300
  -0.0024728000   -0.0079891400    0.0044995200
   0.0000373700   -0.0031174200   -0.0001274900
  -0.0056317100   -0.0007333200   -0.0005527900
   0.0041042400    0.0001853200   -0.0004799500
   0.0117907200    0.0188812500    0.0016684300
   0.0008561400    0.0016119300   -0.0008402500
  -0.0054724800   -0.0009428800    0.0005389300
   0.0042582300   -0.0000480400    0.0004920900
   0.0066421500   -0.0040199300   -0.0087899700
   0.0047436900   -0.0038470400   -0.0015917100
   0.0070933500   -0.0044856000    0.0092486500
   0.0050761700   -0.0042892600    0.0019317700
  -0.0005146800    0.0004273700   -0.0064350700
   0.0098898700    0.0040969500    0.0123525200
  -0.0028307800   -0.0086934600   -0.0051113000
  -0.0003153000   -0.0037975200   -0.0004908800
   0.0117116800    0.0186758400   -0.0018881100
   0.0004096800    0.0012484600    0.0005088900
  -0.0227776500    0.1152117600   -0.0750384700
  -0.0013014800    0.0028349400   -0.0027575000
  -0.0033804400   -0.0078534000    0.0015602000
  -0.0001394300   -0.0010606100    0.0004949700
   0.0036901100    0.0090205500   -0.0017913500
   0.0007129600    0.0070384900   -0.0008575100

5    
  0.0000000000000000   0.0000000000000000   0.0100000000000000
   0.0000000000    0.0000000000   -0.0042501700
   0.0000000000    0.0000000000    0.0035836900
   0.0000000000    0.0000000000   -0.0079798600
   0.0000000000    0.0000000000    0.0029046600
   0.0000000000    0.0000000000   -0.3114010000
   0.0000000000    0.0000000000    0.0122468100
  -0.0146174500    0.0122633500    0.0235547700
   0.0179648600   -0.0051749800    0.0104455100
   0.0000000000    0.0000000000    0.0094484300
   0.0000000000    0.0000000000   -0.0101494800
  -0.0278403200   -0.0099584200   -0.0012766200
  -0.0005672500    0.0044097200    0.0069945600
   0.0146174500   -0.0122633500    0.0235547700
  -0.0179648600    0.0051749800    0.0104455100
   0.0278403200    0.0099584200   -0.0012766200
   0.0005672500   -0.0044097200    0.0069945600
  -0.0036678200    0.0009541400   -0.0041135800
   0.0039248100    0.0009649000   -0.0034851300
   0.0026316900   -0.0004877100   -0.0045059800
   0.0094903500   -0.0042081900   -0.0065300900
  -0.0294994200    0.0827610200    0.1060530700
   0.0011108800   -0.0012312900   -0.0050579400
   0.0039444600    0.0021543700    0.0041667400
  -0.0006602800   -0.0023404400   -0.0038311700
   0.0014420300    0.0001293900   -0.0036368900
  -0.0012870800    0.0012466700    0.0019715800
  -0.0005307800   -0.0018841200    0.0053416300
   0.0032344800   -0.0009051300   -0.0026409200
  -0.0078422600   -0.0106773300    0.0343989100
   0.0005470100    0.0012434300   -0.0036455100
   0.0005307800    0.0018841200    0.0053416300
  -0.0032344800    0.0009051300   -0.0026409200
   0.0038570400   -0.0011253000   -0.0060500400
  -0.0043616100    0.0026580200    0.0046455700
  -0.0038570400    0.0011253000   -0.0060500400
   0.0043616100   -0.0026580200    0.0046455700
  -0.0026316900    0.0004877100   -0.0045059800
  -0.0094903500    0.0042081900   -0.0065300900
  -0.0014420300   -0.0001293900   -0.0036368900
   0.0012870800   -0.0012466700    0.0019715800
   0.0078422600    0.0106773300    0.0343989100
  -0.0005470100   -0.0012434300   -0.0036455100
   0.0294994200   -0.0827610200    0.1060530700
  -0.0011108800    0.0012312900   -0.0050579400
  -0.0039444600   -0.0021543700    0.0041667400
   0.0006602800    0.0023404400   -0.0038311700
   0.0036678200   -0.0009541400   -0.0041135800
  -0.0039248100   -0.0009649000   -0.0034851300

5    
  0.0000000000000000   0.0000000000000000  -0.0100000000000000
   0.0000000000    0.0000000000    0.0042962700
   0.0000000000    0.0000000000   -0.0035987100
   0.0000000000    0.0000000000    0.0080316700
   0.0000000000    0.0000000000   -0.0029222700
   0.0000000000    0.0000000000    0.3034387200
   0.0000000000    0.0000000000   -0.0136873700
   0.0151550600   -0.0125722100   -0.0239333400
  -0.0175567800    0.0048352300   -0.0107547800
   0.0000000000    0.0000000000   -0.0081452500
   0.0000000000    0.0000000000    0.0116215000
   0.0273805800    0.0093920800    0.0012760500
   0.0001230300   -0.0050318900   -0.0067990500
  -0.0151550600    0.0125722100   -0.0239333400
   0.0175567800   -0.0048352300   -0.0107547800
  -0.0273805800   -0.0093920800    0.0012760500
  -0.0001230300    0.0050318900   -0.0067990500
   0.0038620400   -0.0008126500    0.0041406900
  -0.0037296000   -0.0008221300    0.0035196200
  -0.0026237900    0.0000100600    0.0037771000
  -0.0094903600    0.0036415700    0.0057124300
   0.0274357200   -0.0778087200   -0.1019523100
  -0.0018015000    0.0015746300    0.0057110400
  -0.0034578900   -0.0021762100   -0.0034159800
   0.0011686200    0.0024108500    0.0046238300
  -0.0011154300    0.0005424000    0.0030625700
   0.0016413400   -0.0005706800   -0.0026167500
   0.0003253500    0.0021103900   -0.0053308700
  -0.0033668200    0.0011491100    0.0026440600
   0.0081334200    0.0109194000   -0.0346310700
  -0.0000886600   -0.0008676300    0.0033115900
  -0.0003253500   -0.0021103900   -0.0053308700
   0.0033668200   -0.0011491100    0.0026440600
  -0.0042743900    0.0015758100    0.0064746800
   0.0040214700   -0.0022161600   -0.0043367900
   0.0042743900   -0.0015758100    0.0064746800
  -0.0040214700    0.0022161600   -0.0043367900
   0.0026237900   -0.0000100600    0.0037771000
   0.0094903600   -0.0036415700    0.0057124300
   0.0011154300   -0.0005424000    0.0030625700
  -0.0016413400    0.0005706800   -0.0026167500
  -0.0081334200   -0.0109194000   -0.0346310700
   0.0000886600    0.0008676300    0.0033115900
  -0.0274357200    0.0778087200   -0.1019523100
   0.0018015000   -0.0015746300    0.0057110400
   0.0034578900    0.0021762100   -0.0034159800
  -0.0011686200   -0.0024108500    0.0046238300
  -0.0038620400    0.0008126500    0.0041406900
   0.0037296000    0.0008221300    0.0035196200

7    
  0.0100000000000000  -0.0000000001998174   0.0000000000000000
   0.0000337400    0.0014450000    0.0022417200
   0.0019228500    0.0049472000   -0.0050264900
   0.0006458000    0.0009488000   -0.0007909100
   0.0024377400    0.0054314400    0.0043075200
   0.0088664500   -0.0265276600   -0.0157073800
   0.0049279300   -0.0172518100    0.0169953500
  -0.3226010600   -0.0392964400   -0.0761658500
  -0.0059225600    0.0006578700    0.0007971900
   0.0244528200   -0.0544205000   -0.0088390700
  -0.0006499700   -0.0026512500    0.0053738300
  -0.0065842300   -0.0049224700    0.0113911700
  -0.0024083500   -0.0034616400    0.0002785100
   0.0145671200   -0.0021945200    0.0073846200
   0.0056723700    0.0001148100    0.0012516500
   0.0579580700    0.0049771200    0.0049821700
   0.0044091600    0.0034663400    0.0011760900
  -0.0054529100    0.0002063300   -0.0008369400
  -0.0008828000   -0.0010900800    0.0000057500
  -0.0048754900   -0.0001017700    0.0022381000
  -0.0022524300    0.0019794600    0.0017317000
  -0.0019919300    0.0118696800    0.0125438100
  -0.0009501400    0.0009609700   -0.0042772200
   0.0025425500   -0.0013118500   -0.0014471800
   0.0028730700    0.0009560900    0.0021126100
   0.0088389300    0.0105013000   -0.0048888900
   0.0009593100    0.0005457500   -0.0013883400
   0.0010937900    0.0005448300   -0.0008414100
   0.0001007600    0.0006920400    0.0011049600
   0.0043044000    0.0048080100   -0.0034079400
   0.0037797500    0.0012357000   -0.0008986200
  -0.0154968000    0.0034034900    0.0006688600
  -0.0015683300   -0.0004880900    0.0024394500
   0.0479723900    0.0198542700   -0.0405616500
   0.0016420900   -0.0002181500   -0.0017312300
  -0.0085210700    0.0092562700   -0.0093515600
  -0.0014689800    0.0007564700   -0.0015904600
   0.1859571800    0.0246434200    0.1216119800
   0.0018224900   -0.0003143900    0.0021052000
  -0.0099126300    0.0040037900   -0.0030727200
  -0.0007491600    0.0000655900   -0.0010923400
  -0.0126056900   -0.0045180600   -0.0035790700
  -0.0039600400   -0.0025879500   -0.0021636200
  -0.0019841800    0.0063714000   -0.0051803600
  -0.0008218800    0.0035749200   -0.0054449500
  -0.0066828600    0.0042926500   -0.0032257800
  -0.0031990100   -0.0015228200    0.0017826100
   0.0330752200    0.0297916800   -0.0028730700
   0.0006865500    0.0005767300   -0.0001418100

7    
 -0.0100000000000000   0.0000000001998174   0.0000000000000000
  -0.0000260500   -0.0014727900   -0.0022750100
  -0.0019077900   -0.0049699000    0.0050700900
  -0.0006631600   -0.0009348600    0.0007745300
  -0.0024350500   -0.0054205500   -0.0042656600
  -0.0088235900    0.0262076200    0.0140710600
  -0.0050188000    0.0173750900   -0.0185277500
   0.3168219300    0.0359798800    0.0664784100
   0.0065136900   -0.0011238600   -0.0010879500
  -0.0243404800    0.0545810700    0.0105071900
   0.0006929700    0.0026987100   -0.0040683700
   0.0061621800    0.0044077600   -0.0109626900
   0.0019919700    0.0029093500   -0.0001023400
  -0.0151163600    0.0025525200   -0.0075529000
  -0.0062683300    0.0003390700   -0.0015437400
  -0.0580363600   -0.0043529500   -0.0047832800
  -0.0039750600   -0.0029048100   -0.0009975400
   0.0056908600    0.0000260700    0.0008249100
   0.0011151900    0.0011994500    0.0000216600
   0.0049311400   -0.0004139300   -0.0030275800
   0.0022720700   -0.0024814300   -0.0024469100
   0.0014956500   -0.0114320100   -0.0118998500
   0.0002607900   -0.0005987100    0.0049647500
  -0.0020435700    0.0013187500    0.0021339200
  -0.0023634900   -0.0009264100   -0.0013527500
  -0.0085670700   -0.0098108000    0.0042974300
  -0.0006342300    0.0001250400    0.0008030400
  -0.0012441300   -0.0003038900    0.0008084800
  -0.0002278400   -0.0004588400   -0.0011090900
  -0.0038081700   -0.0043747000    0.0029942100
  -0.0033446900   -0.0008806800    0.0005741100
   0.0154095000   -0.0037411400   -0.0008571000
   0.0016919000    0.0002545000   -0.0024306600
  -0.0501190600   -0.0189670500    0.0432958500
  -0.0020377000    0.0006661600    0.0021237400
   0.0088123500   -0.0096460000    0.0096460400
   0.0018567200   -0.0012122000    0.0019714800
  -0.1778347200   -0.0226673000   -0.1150135400
  -0.0018422800    0.0008266000   -0.0028182500
   0.0095084100   -0.0047582200    0.0023333800
   0.0004060600   -0.0007483200    0.0004978400
   0.0122374600    0.0041562400    0.0032458000
   0.0035331400    0.0022308200    0.0018242600
   0.0026869600   -0.0066850100    0.0057929000
   0.0015426300   -0.0040022600    0.0061761400
   0.0061787700   -0.0043564400    0.0040212000
   0.0026947300    0.0014987000   -0.0010308900
  -0.0329090400   -0.0290301900    0.0027361900
  -0.0009200900   -0.0006781800    0.0001652300

7    
  0.0000000001998174   0.0100000000000000   0.0000000000000000
   0.0009875500   -0.0001667700    0.0016397700
   0.0052746200   -0.0003634600   -0.0064147800
   0.0000616900   -0.0000037000   -0.0003047700
   0.0030556900    0.0024535000    0.0033564200
  -0.0109287400    0.0048178100    0.0117082000
  -0.0077110200   -0.0056504200   -0.0057175200
  -0.0361367000   -0.3557214400    0.0097154400
   0.0011859100   -0.0001339400    0.0019082200
  -0.0317459400    0.0154000300    0.0285597700
   0.0008085100    0.0007218300    0.0010253100
   0.0030519500    0.0578092000    0.0088542700
  -0.0000418800    0.0039034500    0.0008995700
  -0.0026741200    0.0076463900   -0.0057469900
  -0.0004138300   -0.0001885700    0.0012744100
  -0.0030351100   -0.0060883800   -0.0051366500
   0.0000402700   -0.0019252100    0.0018873300
  -0.0012906600   -0.0014724900    0.0003384600
   0.0002301000    0.0007977900   -0.0004427300
   0.0007019600   -0.0024379900    0.0011958700
   0.0006621300   -0.0006156100   -0.0015148100
   0.0015008000    0.0089459800   -0.0021119100
  -0.0001862300    0.0012794700   -0.0004957400
   0.0000200700   -0.0107901900   -0.0045381300
   0.0001785700   -0.0026703700   -0.0028932400
   0.0073422100   -0.0096157300   -0.0007742400
  -0.0001157500    0.0001284000   -0.0004423300
  -0.0014225100   -0.0064822300   -0.0010013100
   0.0003379900   -0.0002615500   -0.0001255400
   0.0026236400   -0.0067032000   -0.0025762900
   0.0012525600   -0.0019841000    0.0025754000
   0.0045743700    0.0052991100    0.0012483200
   0.0000849000    0.0005075000   -0.0016344000
  -0.0012367000    0.0185148500    0.0014673600
  -0.0003470200    0.0003180600   -0.0001204000
   0.0044245300   -0.0050506700    0.0011179600
  -0.0000641400   -0.0003761800   -0.0003943800
   0.0239459700    0.0375203900    0.0155533500
  -0.0007170100    0.0005680100   -0.0019317500
   0.0059925800   -0.0009172600    0.0028128000
  -0.0005834600   -0.0007646500   -0.0011098300
   0.0031649200    0.0022605800    0.0021318700
   0.0010063600    0.0013976300    0.0007629900
   0.0027394200   -0.0024234300    0.0002686300
   0.0003037600    0.0007144400   -0.0010061700
  -0.0006790100    0.0007535400    0.0008975800
   0.0007030900    0.0009968100   -0.0017933500
   0.0232178600    0.2503882500   -0.0525051600
  -0.0001441500   -0.0003354600   -0.0004668600

7    
 -0.0000000001998174  -0.0100000000000000   0.0000000000000000
  -0.0009979900    0.0001796400   -0.0016485000
  -0.0053341400    0.0003725200    0.0064821000
  -0.0000518800   -0.0000043500    0.0002998900
  -0.0030242500   -0.0024682600   -0.0033180900
   0.0110428100   -0.0046073000   -0.0131242800
   0.0077403000    0.0057797300    0.0042939900
   0.0391641500    0.3730357300   -0.0127795400
  -0.0005938500   -0.0003049000   -0.0021388500
   0.0313117500   -0.0157705500   -0.0266668000
  -0.0008343200   -0.0007463800    0.0003321000
  -0.0034209900   -0.0581829100   -0.0086374400
  -0.0004077100   -0.0044804500   -0.0006471600
   0.0020736000   -0.0071936900    0.0055005200
  -0.0001911500    0.0006354900   -0.0015021000
   0.0034350000    0.0066625100    0.0053314700
   0.0004032000    0.0024764100   -0.0016730400
   0.0015347000    0.0015687000   -0.0003274900
   0.0000066800   -0.0006850300    0.0004525600
  -0.0006756400    0.0019183100   -0.0019632300
  -0.0006102400    0.0000978200    0.0007500600
  -0.0020632500   -0.0087839600    0.0026198800
  -0.0004964600   -0.0009510700    0.0011299100
   0.0004905100    0.0107395400    0.0052503800
   0.0003342900    0.0027051900    0.0036225100
  -0.0068464600    0.0104843600    0.0001278800
   0.0004602400    0.0005629200   -0.0001752100
   0.0012758100    0.0066905000    0.0009913500
  -0.0004417100    0.0004950600    0.0001132300
  -0.0022342500    0.0070655200    0.0022910300
  -0.0008290800    0.0023741900   -0.0029759300
  -0.0044170500   -0.0055202600   -0.0012290600
   0.0000237900   -0.0007397600    0.0016286400
   0.0010505200   -0.0180830700   -0.0014721700
  -0.0000332100    0.0001380000    0.0004701700
  -0.0040392800    0.0046472400   -0.0008245700
   0.0004481300   -0.0000777300    0.0007530500
  -0.0246055400   -0.0376594600   -0.0167121300
   0.0006666800   -0.0000606000    0.0011659200
  -0.0062725700    0.0003157100   -0.0034128100
   0.0002542100    0.0000855800    0.0005037000
  -0.0035882400   -0.0026769800   -0.0025034700
  -0.0014461000   -0.0017687300   -0.0011055100
  -0.0020778100    0.0020597800    0.0003968500
   0.0003838200   -0.0010966300    0.0016678600
   0.0001508600   -0.0007545000   -0.0001478100
  -0.0011880100   -0.0010167000    0.0025315200
  -0.0254364800   -0.2676715600    0.0557995900
  -0.0000933500    0.0002143800    0.0004790100

7    
  0.0000000000000000   0.0000000000000000   0.0100000000000000
   0.0005020000    0.0019039000    0.0030491300
  -0.0031488900   -0.0052913500    0.0024280000
  -0.0002089900   -0.0017201300    0.0024797800
   0.0033644900    0.0035777200    0.0029787700
  -0.0053461100    0.0361750900    0.0229117500
   0.0067752800   -0.0106363800    0.0098556100
  -0.0720755400    0.0100957800   -0.2745673700
   0.0012337400    0.0018134000    0.0103793700
  -0.0281762400    0.0594735000   -0.0005477400
   0.0000702600   -0.0036899200    0.0076060900
   0.0050128800    0.0046250900   -0.0226676000
  -0.0019927100    0.0007861100    0.0080564200
  -0.0077547700    0.0058252100   -0.0154940600
  -0.0016936400   -0.0011799500    0.0074786200
   0.0089236300   -0.0108554900   -0.0227443600
   0.0009821400    0.0001104600    0.0080417600
   0.0011390800   -0.0050506500    0.0047091900
   0.0005141700    0.0016622400   -0.0022577300
  -0.0007321200   -0.0012606000    0.0027044300
   0.0028773300   -0.0023073100   -0.0054189800
   0.0035898800   -0.0142944600   -0.0096498300
  -0.0006143000   -0.0001742400   -0.0034406400
  -0.0007107700    0.0064608100    0.0046779400
  -0.0001808100   -0.0029009900   -0.0038437900
  -0.0047846600   -0.0078183400    0.0146899400
   0.0016957600    0.0017914800   -0.0039417500
  -0.0025609800   -0.0007837400    0.0034827400
   0.0019785400   -0.0004120300   -0.0019568700
  -0.0031167200   -0.0088029200    0.0047605300