natom:   54
displacements:
- atom:    1
  displacement:
    [   0.0079439039403258,  0.0000000000000000,  0.0060740752536396 ]
- atom:   19
  displacement:
    [   0.0079439039403258,  0.0000000000000000,  0.0060740752536396 ]
lattice:
- [    9.225507302187758,   0.000000000000000,   0.000000000000000 ]
- [   -4.612753651093879,   7.989523686493440,   0.000000000000000 ]
- [    0.000000000000000,   0.000000000000000,   7.054016013717304 ]
atoms:
- symbol: Mg # 1
  position: [   0.00000000000000,  0.00000000000000,  0.00000000000000 ]
- symbol: Mg # 2
  position: [   0.33333333333333,  0.00000000000000,  0.00000000000000 ]
- symbol: Mg # 3
  position: [   0.66666666666667,  0.00000000000000,  0.00000000000000 ]
- symbol: Mg # 4
  position: [   0.00000000000000,  0.33333333333333,  0.00000000000000 ]
- symbol: Mg # 5
  position: [   0.33333333333333,  0.33333333333333,  0.00000000000000 ]
- symbol: Mg # 6
  position: [   0.66666666666667,  0.33333333333333,  0.00000000000000 ]
- symbol: Mg # 7
  position: [   0.00000000000000,  0.66666666666667,  0.00000000000000 ]
- symbol: Mg # 8
  position: [   0.33333333333333,  0.66666666666667,  0.00000000000000 ]
- symbol: Mg # 9
  position: [   0.66666666666667,  0.66666666666667,  0.00000000000000 ]
- symbol: Mg # 10
  position: [   0.00000000000000,  0.00000000000000,  0.50000000000000 ]
- symbol: Mg # 11
  position: [   0.33333333333333,  0.00000000000000,  0.50000000000000 ]
- symbol: Mg # 12
  position: [   0.66666666666667,  0.00000000000000,  0.50000000000000 ]
- symbol: Mg # 13
  position: [   0.00000000000000,  0.33333333333333,  0.50000000000000 ]
- symbol: Mg # 14
  position: [   0.33333333333333,  0.33333333333333,  0.50000000000000 ]
- symbol: Mg # 15
  position: [   0.66666666666667,  0.33333333333333,  0.50000000000000 ]
- symbol: Mg # 16
  position: [   0.00000000000000,  0.66666666666667,  0.50000000000000 ]
- symbol: Mg # 17
  position: [   0.33333333333333,  0.66666666666667,  0.50000000000000 ]
- symbol: Mg # 18
  position: [   0.66666666666667,  0.66666666666667,  0.50000000000000 ]
- symbol: B  # 19
  position: [   0.11111111111111,  0.22222222222222,  0.25000000000000 ]
- symbol: B  # 20
  position: [   0.44444444444445,  0.22222222222222,  0.25000000000000 ]
- symbol: B  # 21
  position: [   0.77777777777778,  0.22222222222222,  0.25000000000000 ]
- symbol: B  # 22
  position: [   0.11111111111111,  0.55555555555555,  0.25000000000000 ]
- symbol: B  # 23
  position: [   0.44444444444445,  0.55555555555555,  0.25000000000000 ]
- symbol: B  # 24
  position: [   0.77777777777778,  0.55555555555555,  0.25000000000000 ]
- symbol: B  # 25
  position: [   0.11111111111111,  0.88888888888889,  0.25000000000000 ]
- symbol: B  # 26
  position: [   0.44444444444445,  0.88888888888889,  0.25000000000000 ]
- symbol: B  # 27
  position: [   0.77777777777778,  0.88888888888889,  0.25000000000000 ]
- symbol: B  # 28
  position: [   0.11111111111111,  0.22222222222222,  0.75000000000000 ]
- symbol: B  # 29
  position: [   0.44444444444445,  0.22222222222222,  0.75000000000000 ]
- symbol: B  # 30
  position: [   0.77777777777778,  0.22222222222222,  0.75000000000000 ]
- symbol: B  # 31
  position: [   0.11111111111111,  0.55555555555555,  0.75000000000000 ]
- symbol: B  # 32
  position: [   0.44444444444445,  0.55555555555555,  0.75000000000000 ]
- symbol: B  # 33
  position: [   0.77777777777778,  0.55555555555555,  0.75000000000000 ]
- symbol: B  # 34
  position: [   0.11111111111111,  0.88888888888889,  0.75000000000000 ]
- symbol: B  # 35
  position: [   0.44444444444445,  0.88888888888889,  0.75000000000000 ]
- symbol: B  # 36
  position: [   0.77777777777778,  0.88888888888889,  0.75000000000000 ]
- symbol: B  # 37
  position: [   0.22222222222222,  0.11111111111111,  0.25000000000000 ]
- symbol: B  # 38
  position: [   0.55555555555555,  0.11111111111111,  0.25000000000000 ]
- symbol: B  # 39
  position: [   0.88888888888889,  0.11111111111111,  0.25000000000000 ]
- symbol: B  # 40
  position: [   0.22222222222222,  0.44444444444445,  0.25000000000000 ]
- symbol: B  # 41
  position: [   0.55555555555555,  0.44444444444445,  0.25000000000000 ]
- symbol: B  # 42
  position: [   0.88888888888889,  0.44444444444445,  0.25000000000000 ]
- symbol: B  # 43
  position: [   0.22222222222222,  0.77777777777778,  0.25000000000000 ]
- symbol: B  # 44
  position: [   0.55555555555555,  0.77777777777778,  0.25000000000000 ]
- symbol: B  # 45
  position: [   0.88888888888889,  0.77777777777778,  0.25000000000000 ]
- symbol: B  # 46
  position: [   0.22222222222222,  0.11111111111111,  0.75000000000000 ]
- symbol: B  # 47
  position: [   0.55555555555555,  0.11111111111111,  0.75000000000000 ]
- symbol: B  # 48
  position: [   0.88888888888889,  0.11111111111111,  0.75000000000000 ]
- symbol: B  # 49
  position: [   0.22222222222222,  0.44444444444445,  0.75000000000000 ]
- symbol: B  # 50
  position: [   0.55555555555555,  0.44444444444445,  0.75000000000000 ]
- symbol: B  # 51
  position: [   0.88888888888889,  0.44444444444445,  0.75000000000000 ]
- symbol: B  # 52
  position: [   0.22222222222222,  0.77777777777778,  0.75000000000000 ]
- symbol: B  # 53
  position: [   0.55555555555555,  0.77777777777778,  0.75000000000000 ]
- symbol: B  # 54
  position: [   0.88888888888889,  0.77777777777778,  0.75000000000000 ]
