54   
2    

1    
  0.0079439039403258   0.0000000000000000   0.0060740752536396
  -0.0567291400    0.0000000000   -0.0437145000
   0.0074057100    0.0000000000   -0.0008197500
   0.0072239500    0.0000000000   -0.0007997100
   0.0013216900   -0.0034442800   -0.0008001300
   0.0013345900    0.0034812000   -0.0008117500
   0.0002052800    0.0000007800   -0.0002117700
   0.0013345900   -0.0034812000   -0.0008117500
   0.0002052800   -0.0000007800   -0.0002117700
   0.0013216900    0.0034442800   -0.0008001300
  -0.0004109300    0.0000000000    0.0048858800
   0.0000147200    0.0000000000    0.0005439300
  -0.0000080800    0.0000000000    0.0005356900
  -0.0000364700   -0.0000030800    0.0005375600
  -0.0000107600    0.0000280600    0.0005414500
   0.0000093200    0.0000016200    0.0000803300
  -0.0000107600   -0.0000280600    0.0005414500
   0.0000093200   -0.0000016200    0.0000803300
  -0.0000364700    0.0000030800    0.0005375600
  -0.0005726100    0.0044855800    0.0031847500
   0.0007836700    0.0003601600    0.0009024300
   0.0007558200   -0.0003452300   -0.0007594600
   0.0002691200    0.0004331100    0.0004282200
  -0.0002833000   -0.0001144500   -0.0001180000
   0.0001589100   -0.0000133900    0.0000682400
   0.0083328900   -0.0051491700    0.0064280400
  -0.0004813300   -0.0003187200    0.0001535300
   0.0004466400    0.0005813500    0.0000924200
  -0.0005610100   -0.0044479800    0.0031491600
   0.0007378800    0.0003361600   -0.0007566000
   0.0008065100   -0.0003768100    0.0008807300
  -0.0002716700    0.0001206600   -0.0001128000
   0.0002561800   -0.0004258700    0.0004288700
   0.0001545800    0.0000422800    0.0000651600
   0.0003923900   -0.0005574500    0.0001337700
  -0.0004813200    0.0003049900    0.0001595700
   0.0079848700    0.0049270700    0.0060205300
   0.0083328900    0.0051491700    0.0064280400
  -0.0004813300    0.0003187200    0.0001535300
   0.0004466400   -0.0005813500    0.0000924200
   0.0001589100    0.0000133900    0.0000682400
   0.0002691200   -0.0004331100    0.0004282200
  -0.0002833000    0.0001144500   -0.0001180000
   0.0007836700   -0.0003601600    0.0009024300
   0.0007558200    0.0003452300   -0.0007594600
  -0.0005726100   -0.0044855800    0.0031847500
   0.0003923900    0.0005574500    0.0001337700
  -0.0004813200   -0.0003049900    0.0001595700
   0.0079848700   -0.0049270700    0.0060205300
   0.0001545800   -0.0000422800    0.0000651600
  -0.0002716700   -0.0001206600   -0.0001128000
   0.0002561800    0.0004258700    0.0004288700
   0.0007378800   -0.0003361600   -0.0007566000
   0.0008065100    0.0003768100    0.0008807300
  -0.0005610100    0.0044479800    0.0031491600

19   
  0.0079439039403258   0.0000000000000000   0.0060740752536396
  -0.0005500500    0.0026459600    0.0031424500
   0.0001593800   -0.0000032100    0.0000341100
   0.0013796500    0.0007155500    0.0000907100
   0.0063933900   -0.0040038000    0.0079784900
   0.0019424000    0.0014605000   -0.0018774400
  -0.0004802700   -0.0002351300    0.0001636300
   0.0002058700    0.0003879600    0.0005173400
   0.0001604400   -0.0007212500    0.0000632300
  -0.0002223800   -0.0001735500   -0.0001920700
  -0.0005852100   -0.0027473900    0.0032053700
   0.0014218500   -0.0007370600    0.0001189200
   0.0001194300   -0.0000072500    0.0000495300
   0.0019631900   -0.0014656800   -0.0018930800
   0.0068570000    0.0043190100    0.0084946600
  -0.0004847000    0.0002451500    0.0001628200
  -0.0002109400    0.0001498100   -0.0001878000
   0.0001520200    0.0007352300    0.0000833300
   0.0001926300   -0.0004156900    0.0005156100
  -0.1295616400    0.0011268000   -0.0602890600
   0.0179348700    0.0000249000   -0.0018102600
   0.0178534400    0.0001488400   -0.0017535900
   0.0070707400   -0.0063441900   -0.0017476700
   0.0071553600    0.0062281900   -0.0018156200
   0.0036061600    0.0000086300    0.0021076800
   0.0070473400   -0.0061895600   -0.0017763000
   0.0036062600   -0.0000034500    0.0021077700
   0.0071798900    0.0061353900   -0.0017875700
   0.0010799900   -0.0000138200    0.0026449000
  -0.0005387300   -0.0004803800   -0.0006064200
  -0.0005028100    0.0004533700   -0.0005951100
  -0.0001367000   -0.0002491400   -0.0005958800
  -0.0001398100    0.0002428600   -0.0006056200
  -0.0014911300    0.0000072500    0.0003366600
  -0.0001451000    0.0006940300   -0.0006016100
  -0.0014913700   -0.0000000500    0.0003365800
  -0.0001312800   -0.0006814000   -0.0006000300
   0.0273964000   -0.0086719300    0.0146686100
  -0.0036875600   -0.0000776400   -0.0024241400
   0.0256924100    0.0075268300    0.0148140600
   0.0125226200   -0.0001632800    0.0147456000
  -0.0046898000   -0.0012916400    0.0005580800
  -0.0046901100    0.0012706200    0.0005364400
  -0.0046347600   -0.0005346500   -0.0024233500
  -0.0047449000    0.0006228300   -0.0024255200
  -0.0024709700    0.0000268500    0.0005472800
  -0.0003919400    0.0000915700    0.0026800800
   0.0005122700   -0.0000020000   -0.0002971400
  -0.0004046100   -0.0000983100    0.0026491400
  -0.0002339200    0.0000060600    0.0026644000
   0.0007778000    0.0009359700    0.0002969800
   0.0007799900   -0.0009255800    0.0002910800
   0.0011407900    0.0003750100   -0.0002949900
   0.0011504300   -0.0003563500   -0.0002993600
  -0.0008333200    0.0000082200    0.0002940900
