<?xml version="1.0" encoding="ISO-8859-1"?>
<modeling>
 <generator>
  <i name="program" type="string">vasp </i>
  <i name="version" type="string">5.2.12  </i>
  <i name="subversion" type="string">11Nov11 complex                                                      parallel </i>
  <i name="platform" type="string">LinuxIFC </i>
  <i name="date" type="string">2012 02 01 </i>
  <i name="time" type="string">19:41:25 </i>
 </generator>
 <incar>
  <i type="string" name="PREC">accurate</i>
  <i type="int" name="IALGO">    38</i>
  <i type="logical" name="ADDGRID"> T  </i>
  <i type="int" name="NELMIN">     5</i>
  <i type="int" name="IBRION">    -1</i>
  <i name="EDIFF">      0.00000001</i>
  <i name="ENCUT">    500.00000000</i>
  <i type="logical" name="LREAL"> F  </i>
  <i type="int" name="ISMEAR">     1</i>
  <i name="SIGMA">      0.20000000</i>
  <i type="logical" name="LWAVE"> F  </i>
  <i type="logical" name="LCHARG"> F  </i>
 </incar>
 <kpoints>
  <generation param="Monkhorst-Pack">
   <v type="int" name="divisions">       6        6        9 </v>
   <v name="usershift">      0.50000000       0.50000000       0.00000000 </v>
   <v name="genvec1">      0.16666667       0.00000000       0.00000000 </v>
   <v name="genvec2">      0.00000000       0.16666667       0.00000000 </v>
   <v name="genvec3">      0.00000000       0.00000000       0.11111111 </v>
   <v name="shift">      0.00000000       0.00000000       0.00000000 </v>
  </generation>
  <varray name="kpointlist" >
   <v>       0.00000000       0.00000000       0.00000000 </v>
   <v>       0.16666667       0.00000000       0.00000000 </v>
   <v>       0.33333333       0.00000000       0.00000000 </v>
   <v>       0.50000000       0.00000000       0.00000000 </v>
   <v>       0.00000000       0.16666667       0.00000000 </v>
   <v>       0.16666667       0.16666667       0.00000000 </v>
   <v>       0.33333333       0.16666667       0.00000000 </v>
   <v>       0.50000000       0.16666667       0.00000000 </v>
   <v>      -0.33333333       0.16666667       0.00000000 </v>
   <v>      -0.16666667       0.16666667       0.00000000 </v>
   <v>       0.00000000       0.33333333       0.00000000 </v>
   <v>       0.16666667       0.33333333       0.00000000 </v>
   <v>       0.33333333       0.33333333       0.00000000 </v>
   <v>       0.50000000       0.33333333       0.00000000 </v>
   <v>      -0.33333333       0.33333333       0.00000000 </v>
   <v>      -0.16666667       0.33333333       0.00000000 </v>
   <v>       0.00000000       0.50000000       0.00000000 </v>
   <v>       0.16666667       0.50000000       0.00000000 </v>
   <v>       0.33333333       0.50000000       0.00000000 </v>
   <v>       0.50000000       0.50000000       0.00000000 </v>
   <v>       0.00000000       0.00000000       0.11111111 </v>
   <v>       0.16666667       0.00000000       0.11111111 </v>
   <v>       0.33333333       0.00000000       0.11111111 </v>
   <v>       0.50000000       0.00000000       0.11111111 </v>
   <v>      -0.33333333       0.00000000       0.11111111 </v>
   <v>      -0.16666667       0.00000000       0.11111111 </v>
   <v>       0.00000000       0.16666667       0.11111111 </v>
   <v>       0.16666667       0.16666667       0.11111111 </v>
   <v>       0.33333333       0.16666667       0.11111111 </v>
   <v>       0.50000000       0.16666667       0.11111111 </v>
   <v>      -0.33333333       0.16666667       0.11111111 </v>
   <v>      -0.16666667       0.16666667       0.11111111 </v>
   <v>       0.00000000       0.33333333       0.11111111 </v>
   <v>       0.16666667       0.33333333       0.11111111 </v>
   <v>       0.33333333       0.33333333       0.11111111 </v>
   <v>       0.50000000       0.33333333       0.11111111 </v>
   <v>      -0.33333333       0.33333333       0.11111111 </v>
   <v>      -0.16666667       0.33333333       0.11111111 </v>
   <v>       0.00000000       0.50000000       0.11111111 </v>
   <v>       0.16666667       0.50000000       0.11111111 </v>
   <v>       0.33333333       0.50000000       0.11111111 </v>
   <v>       0.50000000       0.50000000       0.11111111 </v>
   <v>      -0.33333333       0.50000000       0.11111111 </v>
   <v>      -0.16666667       0.50000000       0.11111111 </v>
   <v>       0.00000000      -0.33333333       0.11111111 </v>
   <v>       0.16666667      -0.33333333       0.11111111 </v>
   <v>       0.33333333      -0.33333333       0.11111111 </v>
   <v>       0.50000000      -0.33333333       0.11111111 </v>
   <v>      -0.33333333      -0.33333333       0.11111111 </v>
   <v>      -0.16666667      -0.33333333       0.11111111 </v>
   <v>       0.00000000      -0.16666667       0.11111111 </v>
   <v>       0.16666667      -0.16666667       0.11111111 </v>
   <v>       0.33333333      -0.16666667       0.11111111 </v>
   <v>       0.50000000      -0.16666667       0.11111111 </v>
   <v>      -0.33333333      -0.16666667       0.11111111 </v>
   <v>      -0.16666667      -0.16666667       0.11111111 </v>
   <v>       0.00000000       0.00000000       0.22222222 </v>
   <v>       0.16666667       0.00000000       0.22222222 </v>
   <v>       0.33333333       0.00000000       0.22222222 </v>
   <v>       0.50000000       0.00000000       0.22222222 </v>
   <v>      -0.33333333       0.00000000       0.22222222 </v>
   <v>      -0.16666667       0.00000000       0.22222222 </v>
   <v>       0.00000000       0.16666667       0.22222222 </v>
   <v>       0.16666667       0.16666667       0.22222222 </v>
   <v>       0.33333333       0.16666667       0.22222222 </v>
   <v>       0.50000000       0.16666667       0.22222222 </v>
   <v>      -0.33333333       0.16666667       0.22222222 </v>
   <v>      -0.16666667       0.16666667       0.22222222 </v>
   <v>       0.00000000       0.33333333       0.22222222 </v>
   <v>       0.16666667       0.33333333       0.22222222 </v>
   <v>       0.33333333       0.33333333       0.22222222 </v>
   <v>       0.50000000       0.33333333       0.22222222 </v>
   <v>      -0.33333333       0.33333333       0.22222222 </v>
   <v>      -0.16666667       0.33333333       0.22222222 </v>
   <v>       0.00000000       0.50000000       0.22222222 </v>
   <v>       0.16666667       0.50000000       0.22222222 </v>
   <v>       0.33333333       0.50000000       0.22222222 </v>
   <v>       0.50000000       0.50000000       0.22222222 </v>
   <v>      -0.33333333       0.50000000       0.22222222 </v>
   <v>      -0.16666667       0.50000000       0.22222222 </v>
   <v>       0.00000000      -0.33333333       0.22222222 </v>
   <v>       0.16666667      -0.33333333       0.22222222 </v>
   <v>       0.33333333      -0.33333333       0.22222222 </v>
   <v>       0.50000000      -0.33333333       0.22222222 </v>
   <v>      -0.33333333      -0.33333333       0.22222222 </v>
   <v>      -0.16666667      -0.33333333       0.22222222 </v>
   <v>       0.00000000      -0.16666667       0.22222222 </v>
   <v>       0.16666667      -0.16666667       0.22222222 </v>
   <v>       0.33333333      -0.16666667       0.22222222 </v>
   <v>       0.50000000      -0.16666667       0.22222222 </v>
   <v>      -0.33333333      -0.16666667       0.22222222 </v>
   <v>      -0.16666667      -0.16666667       0.22222222 </v>
   <v>       0.00000000       0.00000000       0.33333333 </v>
   <v>       0.16666667       0.00000000       0.33333333 </v>
   <v>       0.33333333       0.00000000       0.33333333 </v>
   <v>       0.50000000       0.00000000       0.33333333 </v>
   <v>      -0.33333333       0.00000000       0.33333333 </v>
   <v>      -0.16666667       0.00000000       0.33333333 </v>
   <v>       0.00000000       0.16666667       0.33333333 </v>
   <v>       0.16666667       0.16666667       0.33333333 </v>
   <v>       0.33333333       0.16666667       0.33333333 </v>
   <v>       0.50000000       0.16666667       0.33333333 </v>
   <v>      -0.33333333       0.16666667       0.33333333 </v>
   <v>      -0.16666667       0.16666667       0.33333333 </v>
   <v>       0.00000000       0.33333333       0.33333333 </v>
   <v>       0.16666667       0.33333333       0.33333333 </v>
   <v>       0.33333333       0.33333333       0.33333333 </v>
   <v>       0.50000000       0.33333333       0.33333333 </v>
   <v>      -0.33333333       0.33333333       0.33333333 </v>
   <v>      -0.16666667       0.33333333       0.33333333 </v>
   <v>       0.00000000       0.50000000       0.33333333 </v>
   <v>       0.16666667       0.50000000       0.33333333 </v>
   <v>       0.33333333       0.50000000       0.33333333 </v>
   <v>       0.50000000       0.50000000       0.33333333 </v>
   <v>      -0.33333333       0.50000000       0.33333333 </v>
   <v>      -0.16666667       0.50000000       0.33333333 </v>
   <v>       0.00000000      -0.33333333       0.33333333 </v>
   <v>       0.16666667      -0.33333333       0.33333333 </v>
   <v>       0.33333333      -0.33333333       0.33333333 </v>
   <v>       0.50000000      -0.33333333       0.33333333 </v>
   <v>      -0.33333333      -0.33333333       0.33333333 </v>
   <v>      -0.16666667      -0.33333333       0.33333333 </v>
   <v>       0.00000000      -0.16666667       0.33333333 </v>
   <v>       0.16666667      -0.16666667       0.33333333 </v>
   <v>       0.33333333      -0.16666667       0.33333333 </v>
   <v>       0.50000000      -0.16666667       0.33333333 </v>
   <v>      -0.33333333      -0.16666667       0.33333333 </v>
   <v>      -0.16666667      -0.16666667       0.33333333 </v>
   <v>       0.00000000       0.00000000       0.44444444 </v>
   <v>       0.16666667       0.00000000       0.44444444 </v>
   <v>       0.33333333       0.00000000       0.44444444 </v>
   <v>       0.50000000       0.00000000       0.44444444 </v>
   <v>      -0.33333333       0.00000000       0.44444444 </v>
   <v>      -0.16666667       0.00000000       0.44444444 </v>
   <v>       0.00000000       0.16666667       0.44444444 </v>
   <v>       0.16666667       0.16666667       0.44444444 </v>
   <v>       0.33333333       0.16666667       0.44444444 </v>
   <v>       0.50000000       0.16666667       0.44444444 </v>
   <v>      -0.33333333       0.16666667       0.44444444 </v>
   <v>      -0.16666667       0.16666667       0.44444444 </v>
   <v>       0.00000000       0.33333333       0.44444444 </v>
   <v>       0.16666667       0.33333333       0.44444444 </v>
   <v>       0.33333333       0.33333333       0.44444444 </v>
   <v>       0.50000000       0.33333333       0.44444444 </v>
   <v>      -0.33333333       0.33333333       0.44444444 </v>
   <v>      -0.16666667       0.33333333       0.44444444 </v>
   <v>       0.00000000       0.50000000       0.44444444 </v>
   <v>       0.16666667       0.50000000       0.44444444 </v>
   <v>       0.33333333       0.50000000       0.44444444 </v>
   <v>       0.50000000       0.50000000       0.44444444 </v>
   <v>      -0.33333333       0.50000000       0.44444444 </v>
   <v>      -0.16666667       0.50000000       0.44444444 </v>
   <v>       0.00000000      -0.33333333       0.44444444 </v>
   <v>       0.16666667      -0.33333333       0.44444444 </v>
   <v>       0.33333333      -0.33333333       0.44444444 </v>
   <v>       0.50000000      -0.33333333       0.44444444 </v>
   <v>      -0.33333333      -0.33333333       0.44444444 </v>
   <v>      -0.16666667      -0.33333333       0.44444444 </v>
   <v>       0.00000000      -0.16666667       0.44444444 </v>
   <v>       0.16666667      -0.16666667       0.44444444 </v>
   <v>       0.33333333      -0.16666667       0.44444444 </v>
   <v>       0.50000000      -0.16666667       0.44444444 </v>
   <v>      -0.33333333      -0.16666667       0.44444444 </v>
   <v>      -0.16666667      -0.16666667       0.44444444 </v>
  </varray>
  <varray name="weights" >
   <v>       0.00308642 </v>
   <v>       0.00617284 </v>
   <v>       0.00617284 </v>
   <v>       0.00308642 </v>
   <v>       0.00617284 </v>
   <v>       0.00617284 </v>
   <v>       0.00617284 </v>
   <v>       0.00617284 </v>
   <v>       0.00617284 </v>
   <v>       0.00617284 </v>
   <v>       0.00617284 </v>
   <v>       0.00617284 </v>
   <v>       0.00617284 </v>
   <v>       0.00617284 </v>
   <v>       0.00617284 </v>
   <v>       0.00617284 </v>
   <v>       0.00308642 </v>
   <v>       0.00617284 </v>
   <v>       0.00617284 </v>
   <v>       0.00308642 </v>
   <v>       0.00617284 </v>
   <v>       0.00617284 </v>
   <v>       0.00617284 </v>
   <v>       0.00617284 </v>
   <v>       0.00617284 </v>
   <v>       0.00617284 </v>
   <v>       0.00617284 </v>
   <v>       0.00617284 </v>
   <v>       0.00617284 </v>
   <v>       0.00617284 </v>
   <v>       0.00617284 </v>
   <v>       0.00617284 </v>
   <v>       0.00617284 </v>
   <v>       0.00617284 </v>
   <v>       0.00617284 </v>
   <v>       0.00617284 </v>
   <v>       0.00617284 </v>
   <v>       0.00617284 </v>
   <v>       0.00617284 </v>
   <v>       0.00617284 </v>
   <v>       0.00617284 </v>
   <v>       0.00617284 </v>
   <v>       0.00617284 </v>
   <v>       0.00617284 </v>
   <v>       0.00617284 </v>
   <v>       0.00617284 </v>
   <v>       0.00617284 </v>
   <v>       0.00617284 </v>
   <v>       0.00617284 </v>
   <v>       0.00617284 </v>
   <v>       0.00617284 </v>
   <v>       0.00617284 </v>
   <v>       0.00617284 </v>
   <v>       0.00617284 </v>
   <v>       0.00617284 </v>
   <v>       0.00617284 </v>
   <v>       0.00617284 </v>
   <v>       0.00617284 </v>
   <v>       0.00617284 </v>
   <v>       0.00617284 </v>
   <v>       0.00617284 </v>
   <v>       0.00617284 </v>
   <v>       0.00617284 </v>
   <v>       0.00617284 </v>
   <v>       0.00617284 </v>
   <v>       0.00617284 </v>
   <v>       0.00617284 </v>
   <v>       0.00617284 </v>
   <v>       0.00617284 </v>
   <v>       0.00617284 </v>
   <v>       0.00617284 </v>
   <v>       0.00617284 </v>
   <v>       0.00617284 </v>
   <v>       0.00617284 </v>
   <v>       0.00617284 </v>
   <v>       0.00617284 </v>
   <v>       0.00617284 </v>
   <v>       0.00617284 </v>
   <v>       0.00617284 </v>
   <v>       0.00617284 </v>
   <v>       0.00617284 </v>
   <v>       0.00617284 </v>
   <v>       0.00617284 </v>
   <v>       0.00617284 </v>
   <v>       0.00617284 </v>
   <v>       0.00617284 </v>
   <v>       0.00617284 </v>
   <v>       0.00617284 </v>
   <v>       0.00617284 </v>
   <v>       0.00617284 </v>
   <v>       0.00617284 </v>
   <v>       0.00617284 </v>
   <v>       0.00617284 </v>
   <v>       0.00617284 </v>
   <v>       0.00617284 </v>
   <v>       0.00617284 </v>
   <v>       0.00617284 </v>
   <v>       0.00617284 </v>
   <v>       0.00617284 </v>
   <v>       0.00617284 </v>
   <v>       0.00617284 </v>
   <v>       0.00617284 </v>
   <v>       0.00617284 </v>
   <v>       0.00617284 </v>
   <v>       0.00617284 </v>
   <v>       0.00617284 </v>
   <v>       0.00617284 </v>
   <v>       0.00617284 </v>
   <v>       0.00617284 </v>
   <v>       0.00617284 </v>
   <v>       0.00617284 </v>
   <v>       0.00617284 </v>
   <v>       0.00617284 </v>
   <v>       0.00617284 </v>
   <v>       0.00617284 </v>
   <v>       0.00617284 </v>
   <v>       0.00617284 </v>
   <v>       0.00617284 </v>
   <v>       0.00617284 </v>
   <v>       0.00617284 </v>
   <v>       0.00617284 </v>
   <v>       0.00617284 </v>
   <v>       0.00617284 </v>
   <v>       0.00617284 </v>
   <v>       0.00617284 </v>
   <v>       0.00617284 </v>
   <v>       0.00617284 </v>
   <v>       0.00617284 </v>
   <v>       0.00617284 </v>
   <v>       0.00617284 </v>
   <v>       0.00617284 </v>
   <v>       0.00617284 </v>
   <v>       0.00617284 </v>
   <v>       0.00617284 </v>
   <v>       0.00617284 </v>
   <v>       0.00617284 </v>
   <v>       0.00617284 </v>
   <v>       0.00617284 </v>
   <v>       0.00617284 </v>
   <v>       0.00617284 </v>
   <v>       0.00617284 </v>
   <v>       0.00617284 </v>
   <v>       0.00617284 </v>
   <v>       0.00617284 </v>
   <v>       0.00617284 </v>
   <v>       0.00617284 </v>
   <v>       0.00617284 </v>
   <v>       0.00617284 </v>
   <v>       0.00617284 </v>
   <v>       0.00617284 </v>
   <v>       0.00617284 </v>
   <v>       0.00617284 </v>
   <v>       0.00617284 </v>
   <v>       0.00617284 </v>
   <v>       0.00617284 </v>
   <v>       0.00617284 </v>
   <v>       0.00617284 </v>
   <v>       0.00617284 </v>
   <v>       0.00617284 </v>
   <v>       0.00617284 </v>
   <v>       0.00617284 </v>
   <v>       0.00617284 </v>
   <v>       0.00617284 </v>
   <v>       0.00617284 </v>
  </varray>
 </kpoints>
 <parameters>
  <separator name="general" >
   <i type="string" name="SYSTEM">unknown system</i>
   <i type="logical" name="LCOMPAT"> F  </i>
  </separator>
  <separator name="electronic" >
   <i type="string" name="PREC">accura</i>
   <i name="ENMAX">    500.00000000</i>
   <i name="ENAUG">    535.51400000</i>
   <i name="EDIFF">      0.00000001</i>
   <i type="int" name="IALGO">    38</i>
   <i type="int" name="IWAVPR">    10</i>
   <i type="int" name="NBANDS">   160</i>
   <i name="NELECT">    252.00000000</i>
   <i type="int" name="TURBO">     0</i>
   <i type="int" name="IRESTART">     0</i>
   <i type="int" name="NREBOOT">     0</i>
   <i type="int" name="NMIN">     0</i>
   <i name="EREF">      0.00000000</i>
   <separator name="electronic smearing" >
    <i type="int" name="ISMEAR">     1</i>
    <i name="SIGMA">      0.20000000</i>
    <i name="KSPACING">      0.50000000</i>
    <i type="logical" name="KGAMMA"> T  </i>
   </separator>
   <separator name="electronic projectors" >
    <i type="logical" name="LREAL"> F  </i>
    <v name="ROPT">      0.00000000      0.00000000</v>
    <i type="int" name="LMAXPAW">  -100</i>
    <i type="int" name="LMAXMIX">     2</i>
    <i type="logical" name="NLSPLINE"> F  </i>
   </separator>
   <separator name="electronic startup" >
    <i type="int" name="ISTART">     0</i>
    <i type="int" name="ICHARG">     2</i>
    <i type="int" name="INIWAV">     1</i>
   </separator>
   <separator name="electronic spin" >
    <i type="int" name="ISPIN">     1</i>
    <i type="logical" name="LNONCOLLINEAR"> F  </i>
    <v name="MAGMOM">      1.00000000      1.00000000      1.00000000      1.00000000      1.00000000      1.00000000      1.00000000      1.00000000      1.00000000      1.00000000      1.00000000      1.00000000      1.00000000      1.00000000      1.00000000      1.00000000      1.00000000      1.00000000      1.00000000      1.00000000
      1.00000000      1.00000000      1.00000000      1.00000000      1.00000000      1.00000000      1.00000000      1.00000000      1.00000000      1.00000000      1.00000000      1.00000000      1.00000000      1.00000000      1.00000000      1.00000000      1.00000000      1.00000000      1.00000000      1.00000000
      1.00000000      1.00000000      1.00000000      1.00000000      1.00000000      1.00000000      1.00000000      1.00000000      1.00000000      1.00000000      1.00000000      1.00000000      1.00000000      1.00000000</v>
    <i name="NUPDOWN">     -1.00000000</i>
    <i type="logical" name="LSORBIT"> F  </i>
    <v name="SAXIS">      0.00000000      0.00000000      1.00000000</v>
    <i type="logical" name="LSPIRAL"> F  </i>
    <v name="QSPIRAL">      0.00000000      0.00000000      0.00000000</v>
    <i type="logical" name="LZEROZ"> F  </i>
   </separator>
   <separator name="electronic exchange-correlation" >
    <i type="logical" name="LASPH"> F  </i>
    <i type="logical" name="LMETAGGA"> F  </i>
   </separator>
   <separator name="electronic convergence" >
    <i type="int" name="NELM">    60</i>
    <i type="int" name="NELMDL">    -5</i>
    <i type="int" name="NELMIN">     5</i>
    <i name="ENINI">    500.00000000</i>
    <separator name="electronic convergence detail" >
     <i type="logical" name="LDIAG"> T  </i>
     <i type="logical" name="LSUBROT"> T  </i>
     <i name="WEIMIN">      0.00000000</i>
     <i name="EBREAK">      0.00000000</i>
     <i name="DEPER">      0.30000000</i>
     <i type="int" name="NRMM">     4</i>
     <i name="TIME">      0.40000000</i>
    </separator>
   </separator>
   <separator name="electronic mixer" >
    <i name="AMIX">      0.40000000</i>
    <i name="BMIX">      1.00000000</i>
    <i name="AMIN">      0.10000000</i>
    <i name="AMIX_MAG">      1.60000000</i>
    <i name="BMIX_MAG">      1.00000000</i>
    <separator name="electronic mixer details" >
     <i type="int" name="IMIX">     4</i>
     <i type="int" name="MAXMIX">   -45</i>
     <i name="WC">    100.00000000</i>
     <i type="int" name="INIMIX">     1</i>
     <i type="int" name="MIXPRE">     1</i>
     <i type="int" name="MREMOVE">     5</i>
    </separator>
   </separator>
   <separator name="electronic dipolcorrection" >
    <i type="logical" name="LDIPOL"> F  </i>
    <i type="logical" name="LMONO"> F  </i>
    <i type="int" name="IDIPOL">     0</i>
    <i name="EPSILON">      1.00000000</i>
    <v name="DIPOL">   -100.00000000   -100.00000000   -100.00000000</v>
    <i name="EFIELD">      0.00000000</i>
   </separator>
  </separator>
  <separator name="grids" >
   <i type="int" name="NGX">    70</i>
   <i type="int" name="NGY">    70</i>
   <i type="int" name="NGZ">    54</i>
   <i type="int" name="NGXF">   140</i>
   <i type="int" name="NGYF">   140</i>
   <i type="int" name="NGZF">   108</i>
   <i type="logical" name="ADDGRID"> T  </i>
  </separator>
  <separator name="ionic" >
   <i type="int" name="NSW">     0</i>
   <i type="int" name="IBRION">    -1</i>
   <i type="int" name="ISIF">     2</i>
   <i name="PSTRESS">      0.00000000</i>
   <i name="EDIFFG">      0.00000010</i>
   <i type="int" name="NFREE">     0</i>
   <i name="POTIM">      0.50000000</i>
   <i name="SMASS">     -3.00000000</i>
   <i name="SCALEE">      1.00000000</i>
  </separator>
  <separator name="ionic md" >
   <i name="TEBEG">      0.00010000</i>
   <i name="TEEND">      0.00010000</i>
   <i type="int" name="NBLOCK">     1</i>
   <i type="int" name="KBLOCK">     1</i>
   <i type="int" name="NPACO">   256</i>
   <i name="APACO">     16.00000000</i>
  </separator>
  <separator name="symmetry" >
   <i type="int" name="ISYM">     2</i>
   <i name="SYMPREC">      0.00001000</i>
  </separator>
  <separator name="dos" >
   <i type="logical" name="LORBIT"> F  </i>
   <v name="RWIGS">     -1.00000000     -1.00000000</v>
   <i type="int" name="NEDOS">   301</i>
   <i name="EMIN">     10.00000000</i>
   <i name="EMAX">    -10.00000000</i>
   <i name="EFERMI">      0.00000000</i>
  </separator>
  <separator name="writing" >
   <i type="int" name="NWRITE">     2</i>
   <i type="logical" name="LWAVE"> F  </i>
   <i type="logical" name="LCHARG"> F  </i>
   <i type="logical" name="LPARD"> F  </i>
   <i type="logical" name="LVTOT"> F  </i>
   <i type="logical" name="LVHAR"> F  </i>
   <i type="logical" name="LELF"> F  </i>
   <i type="logical" name="LOPTICS"> F  </i>
   <v name="STM">      0.00000000      0.00000000      0.00000000      0.00000000      0.00000000      0.00000000      0.00000000</v>
  </separator>
  <separator name="performance" >
   <i type="int" name="NPAR">     8</i>
   <i type="int" name="NSIM">     4</i>
   <i type="int" name="NBLK">    -1</i>
   <i type="logical" name="LPLANE"> T  </i>
   <i type="logical" name="LSCALAPACK"> F  </i>
   <i type="logical" name="LSCAAWARE"> F  </i>
   <i type="logical" name="LSCALU"> F  </i>
   <i type="logical" name="LASYNC"> F  </i>
   <i type="logical" name="LORBITALREAL"> F  </i>
  </separator>
  <separator name="miscellaneous" >
   <i type="int" name="IDIOT">     3</i>
   <i type="logical" name="LMUSIC"> F  </i>
   <v name="POMASS">     24.30500000     10.81100000</v>
   <v name="DARWINR">      0.00000000      0.00000000</v>
   <v name="DARWINV">      1.00000000      1.00000000</v>
   <i type="logical" name="LCORR"> T  </i>
  </separator>
  <i type="logical" name="GGA_COMPAT"> T  </i>
  <i type="logical" name="LBERRY"> F  </i>
  <i type="int" name="ICORELEVEL">     0</i>
  <i type="logical" name="LDAU"> F  </i>
  <i type="int" name="I_CONSTRAINED_M">     0</i>
  <separator name="electronic exchange-correlation" >
   <i type="string" name="GGA">--</i>
   <i type="int" name="VOSKOWN">     0</i>
   <i type="logical" name="LHFCALC"> F  </i>
   <i type="string" name="PRECFOCK"></i>
   <i type="logical" name="LHFONE"> F  </i>
   <i type="logical" name="LRHFCALC"> F  </i>
   <i type="logical" name="LTHOMAS"> F  </i>
   <i type="logical" name="LMODELHF"> F  </i>
   <i name="ENCUT4O">     -1.00000000</i>
   <i type="int" name="EXXOEP">     0</i>
   <i type="int" name="FOURORBIT">     0</i>
   <i name="AEXX">      0.00000000</i>
   <i name="HFALPHA">      0.00000000</i>
   <i name="ALDAX">      1.00000000</i>
   <i name="AGGAX">      1.00000000</i>
   <i name="ALDAC">      1.00000000</i>
   <i name="AGGAC">      1.00000000</i>
   <i type="int" name="NKREDX">     1</i>
   <i type="int" name="NKREDY">     1</i>
   <i type="int" name="NKREDZ">     1</i>
   <i type="logical" name="SHIFTRED"> F  </i>
   <i type="logical" name="ODDONLY"> F  </i>
   <i type="logical" name="EVENONLY"> F  </i>
   <i type="int" name="LMAXFOCK">     0</i>
   <i type="int" name="NMAXFOCKAE">     0</i>
   <i type="logical" name="LFOCKAEDFT"> F  </i>
   <i name="HFSCREEN">      0.00000000</i>
   <i name="HFSCREENC">      0.00000000</i>
  </separator>
  <separator name="vdW DFT" >
   <i type="logical" name="LUSE_VDW"> F  </i>
   <i name="Zab_VDW">     -0.84910000</i>
   <i name="PARAM1">      0.12340000</i>
   <i name="PARAM2">      1.00000000</i>
   <i name="PARAM3">      0.00000000</i>
  </separator>
  <separator name="model GW" >
   <i type="int" name="MODEL_GW">     0</i>
   <i name="MODEL_EPS0">      5.77703605</i>
   <i name="MODEL_ALPHA">      1.00000000</i>
  </separator>
  <separator name="linear response parameters" >
   <i type="logical" name="LEPSILON"> F  </i>
   <i type="logical" name="LRPA"> F  </i>
   <i type="logical" name="LNABLA"> F  </i>
   <i type="logical" name="LVEL"> F  </i>
   <i type="int" name="KINTER">     0</i>
   <i name="CSHIFT">      0.10000000</i>
   <i name="OMEGAMAX">     -1.00000000</i>
  </separator>
  <separator name="orbital magnetization" >
   <i type="logical" name="NUCIND"> F  </i>
   <v name="MAGPOS">      0.00000000      0.00000000      0.00000000</v>
   <i type="logical" name="LNICSALL"> T  </i>
   <i type="logical" name="ORBITALMAG"> F  </i>
   <i type="logical" name="LMAGBLOCH"> F  </i>
   <i type="logical" name="LCHIMAG"> F  </i>
   <i type="logical" name="LGAUGE"> T  </i>
   <i type="int" name="MAGATOM">     0</i>
   <v name="MAGDIPOL">      0.00000000      0.00000000      0.00000000</v>
   <v name="AVECCONST">      0.00000000      0.00000000      0.00000000</v>
  </separator>
  <separator name="response functions" >
   <i type="logical" name="LADDER"> F  </i>
   <i type="logical" name="LHARTREE"> T  </i>
   <i type="int" name="IBSE">     0</i>
   <i type="logical" name="LTCTE"> F  </i>
   <i type="logical" name="LTETE"> F  </i>
   <i type="logical" name="LFXCEPS"> F  </i>
   <i type="logical" name="L2ORDER"> F  </i>
   <i type="logical" name="LUSEW"> F  </i>
   <i name="ENCUTGW">     -2.00000000</i>
   <i name="ENCUTGWSOFT">     -2.00000000</i>
   <i name="ENCUTLF">     -1.00000000</i>
   <i type="int" name="LMAXMP2">    -1</i>
   <i name="SCISSOR">      0.00000000</i>
   <i type="int" name="NOMEGA">     0</i>
   <i type="int" name="NOMEGAR">     0</i>
   <i type="int" name="NBANDSGW">    -1</i>
   <i type="int" name="NBANDSO">    -1</i>
   <i type="int" name="NBANDSV">    -1</i>
   <i name="OPTEMAX">      0.00000000</i>
   <i type="int" name="NELM">     1</i>
   <i type="int" name="DIM">     3</i>
   <i type="int" name="ANTIRES">     0</i>
   <i name="OMEGAMAX">    -30.00000000</i>
   <i name="OMEGATL">   -200.00000000</i>
   <i type="int" name="OMEGAGRID">     0</i>
   <i name="CSHIFT">     -0.10000000</i>
   <i type="logical" name="SELFENERGY"> F  </i>
   <i type="logical" name="LSPECTRAL"> F  </i>
   <i type="logical" name="ODDONLYGW"> F  </i>
   <i type="logical" name="EVENONLYGW"> F  </i>
   <i type="int" name="NKREDLFX">     1</i>
   <i type="int" name="NKREDLFY">     1</i>
   <i type="int" name="NKREDLFZ">     1</i>
   <i type="int" name="MAXMEM">  1800</i>
   <i type="int" name="TELESCOPE">     0</i>
  </separator>
 </parameters>
 <atominfo>
  <atoms>      54 </atoms>
  <types>       2 </types>
  <array name="atoms" >
   <dimension dim="1">ion</dimension>
   <field type="string">element</field>
   <field type="int">atomtype</field>
   <set>
    <rc><c>Mg</c><c>   1</c></rc>
    <rc><c>Mg</c><c>   1</c></rc>
    <rc><c>Mg</c><c>   1</c></rc>
    <rc><c>Mg</c><c>   1</c></rc>
    <rc><c>Mg</c><c>   1</c></rc>
    <rc><c>Mg</c><c>   1</c></rc>
    <rc><c>Mg</c><c>   1</c></rc>
    <rc><c>Mg</c><c>   1</c></rc>
    <rc><c>Mg</c><c>   1</c></rc>
    <rc><c>Mg</c><c>   1</c></rc>
    <rc><c>Mg</c><c>   1</c></rc>
    <rc><c>Mg</c><c>   1</c></rc>
    <rc><c>Mg</c><c>   1</c></rc>
    <rc><c>Mg</c><c>   1</c></rc>
    <rc><c>Mg</c><c>   1</c></rc>
    <rc><c>Mg</c><c>   1</c></rc>
    <rc><c>Mg</c><c>   1</c></rc>
    <rc><c>Mg</c><c>   1</c></rc>
    <rc><c>B </c><c>   2</c></rc>
    <rc><c>B </c><c>   2</c></rc>
    <rc><c>B </c><c>   2</c></rc>
    <rc><c>B </c><c>   2</c></rc>
    <rc><c>B </c><c>   2</c></rc>
    <rc><c>B </c><c>   2</c></rc>
    <rc><c>B </c><c>   2</c></rc>
    <rc><c>B </c><c>   2</c></rc>
    <rc><c>B </c><c>   2</c></rc>
    <rc><c>B </c><c>   2</c></rc>
    <rc><c>B </c><c>   2</c></rc>
    <rc><c>B </c><c>   2</c></rc>
    <rc><c>B </c><c>   2</c></rc>
    <rc><c>B </c><c>   2</c></rc>
    <rc><c>B </c><c>   2</c></rc>
    <rc><c>B </c><c>   2</c></rc>
    <rc><c>B </c><c>   2</c></rc>
    <rc><c>B </c><c>   2</c></rc>
    <rc><c>B </c><c>   2</c></rc>
    <rc><c>B </c><c>   2</c></rc>
    <rc><c>B </c><c>   2</c></rc>
    <rc><c>B </c><c>   2</c></rc>
    <rc><c>B </c><c>   2</c></rc>
    <rc><c>B </c><c>   2</c></rc>
    <rc><c>B </c><c>   2</c></rc>
    <rc><c>B </c><c>   2</c></rc>
    <rc><c>B </c><c>   2</c></rc>
    <rc><c>B </c><c>   2</c></rc>
    <rc><c>B </c><c>   2</c></rc>
    <rc><c>B </c><c>   2</c></rc>
    <rc><c>B </c><c>   2</c></rc>
    <rc><c>B </c><c>   2</c></rc>
    <rc><c>B </c><c>   2</c></rc>
    <rc><c>B </c><c>   2</c></rc>
    <rc><c>B </c><c>   2</c></rc>
    <rc><c>B </c><c>   2</c></rc>
   </set>
  </array>
  <array name="atomtypes" >
   <dimension dim="1">type</dimension>
   <field type="int">atomspertype</field>
   <field type="string">element</field>
   <field>mass</field>
   <field>valence</field>
   <field type="string">pseudopotential</field>
   <set>
    <rc><c>  18</c><c>Mg</c><c>     24.30500000</c><c>      8.00000000</c><c> PAW_PBE Mg_pv 06Sep2000                </c></rc>
    <rc><c>  36</c><c>B </c><c>     10.81100000</c><c>      3.00000000</c><c> PAW_PBE B 06Sep2000                    </c></rc>
   </set>
  </array>
 </atominfo>
 <structure name="initialpos" >
  <crystal>
   <varray name="basis" >
    <v>       9.22550730       0.00000000       0.00000000 </v>
    <v>      -4.61275365       7.98952369       0.00000000 </v>
    <v>       0.00000000       0.00000000       7.05401601 </v>
   </varray>
   <i name="volume">    519.93324420 </i>
   <varray name="rec_basis" >
    <v>       0.10839512       0.06258195       0.00000000 </v>
    <v>       0.00000000       0.12516391       0.00000000 </v>
    <v>       0.00000000       0.00000000       0.14176322 </v>
   </varray>
  </crystal>
  <varray name="positions" >
   <v>       0.00000000       0.00000000       0.00000000 </v>
   <v>       0.33333333       0.00000000       0.00000000 </v>
   <v>       0.66666667       0.00000000       0.00000000 </v>
   <v>       0.00000000       0.33333333       0.00000000 </v>
   <v>       0.33333333       0.33333333       0.00000000 </v>
   <v>       0.66666667       0.33333333       0.00000000 </v>
   <v>       0.00000000       0.66666667       0.00000000 </v>
   <v>       0.33333333       0.66666667       0.00000000 </v>
   <v>       0.66666667       0.66666667       0.00000000 </v>
   <v>       0.00000000       0.00000000       0.50000000 </v>
   <v>       0.33333333       0.00000000       0.50000000 </v>
   <v>       0.66666667       0.00000000       0.50000000 </v>
   <v>       0.00000000       0.33333333       0.50000000 </v>
   <v>       0.33333333       0.33333333       0.50000000 </v>
   <v>       0.66666667       0.33333333       0.50000000 </v>
   <v>       0.00000000       0.66666667       0.50000000 </v>
   <v>       0.33333333       0.66666667       0.50000000 </v>
   <v>       0.66666667       0.66666667       0.50000000 </v>
   <v>       0.11197219       0.22222222       0.25086108 </v>
   <v>       0.44444444       0.22222222       0.25000000 </v>
   <v>       0.77777778       0.22222222       0.25000000 </v>
   <v>       0.11111111       0.55555556       0.25000000 </v>
   <v>       0.44444444       0.55555556       0.25000000 </v>
   <v>       0.77777778       0.55555556       0.25000000 </v>
   <v>       0.11111111       0.88888889       0.25000000 </v>
   <v>       0.44444444       0.88888889       0.25000000 </v>
   <v>       0.77777778       0.88888889       0.25000000 </v>
   <v>       0.11111111       0.22222222       0.75000000 </v>
   <v>       0.44444444       0.22222222       0.75000000 </v>
   <v>       0.77777778       0.22222222       0.75000000 </v>
   <v>       0.11111111       0.55555556       0.75000000 </v>
   <v>       0.44444444       0.55555556       0.75000000 </v>
   <v>       0.77777778       0.55555556       0.75000000 </v>
   <v>       0.11111111       0.88888889       0.75000000 </v>
   <v>       0.44444444       0.88888889       0.75000000 </v>
   <v>       0.77777778       0.88888889       0.75000000 </v>
   <v>       0.22222222       0.11111111       0.25000000 </v>
   <v>       0.55555556       0.11111111       0.25000000 </v>
   <v>       0.88888889       0.11111111       0.25000000 </v>
   <v>       0.22222222       0.44444444       0.25000000 </v>
   <v>       0.55555556       0.44444444       0.25000000 </v>
   <v>       0.88888889       0.44444444       0.25000000 </v>
   <v>       0.22222222       0.77777778       0.25000000 </v>
   <v>       0.55555556       0.77777778       0.25000000 </v>
   <v>       0.88888889       0.77777778       0.25000000 </v>
   <v>       0.22222222       0.11111111       0.75000000 </v>
   <v>       0.55555556       0.11111111       0.75000000 </v>
   <v>       0.88888889       0.11111111       0.75000000 </v>
   <v>       0.22222222       0.44444444       0.75000000 </v>
   <v>       0.55555556       0.44444444       0.75000000 </v>
   <v>       0.88888889       0.44444444       0.75000000 </v>
   <v>       0.22222222       0.77777778       0.75000000 </v>
   <v>       0.55555556       0.77777778       0.75000000 </v>
   <v>       0.88888889       0.77777778       0.75000000 </v>
  </varray>
 </structure>
 <calculation>
  <scstep>
   <time name="dav">  496.05  498.10</time>
   <time name="total">  497.34  499.39</time>
   <energy>
    <i name="alphaZ">    746.66562666 </i>
    <i name="ewald"> -13043.33220083 </i>
    <i name="hartreedc">  -4938.39716411 </i>
    <i name="XCdc">    921.35621368 </i>
    <i name="pawpsdc">  10589.82125549 </i>
    <i name="pawaedc"> -12528.22584987 </i>
    <i name="eentropy">     -0.00318087 </i>
    <i name="bandstr">    402.09597782 </i>
    <i name="atom">  21580.70085878 </i>
    <i name="e_fr_energy">   3730.68153675 </i>
    <i name="e_wo_entrp">   3730.68471762 </i>
    <i name="e_0_energy">   3730.68259704 </i>
   </energy>
  </scstep>
  <scstep>
   <time name="dav">  483.12  485.14</time>
   <time name="total">  483.16  485.18</time>
   <energy>
    <i name="e_fr_energy">    357.48557235 </i>
    <i name="e_wo_entrp">    357.48332695 </i>
    <i name="e_0_energy">    357.48482388 </i>
   </energy>
  </scstep>
  <scstep>
   <time name="dav">  533.63  535.84</time>
   <time name="total">  533.67  535.88</time>
   <energy>
    <i name="e_fr_energy">   -259.70403360 </i>
    <i name="e_wo_entrp">   -259.70500758 </i>
    <i name="e_0_energy">   -259.70435826 </i>
   </energy>
  </scstep>
  <scstep>
   <time name="dav">  534.77  536.75</time>
   <time name="total">  534.80  536.79</time>
   <energy>
    <i name="e_fr_energy">   -306.86665278 </i>
    <i name="e_wo_entrp">   -306.84663928 </i>
    <i name="e_0_energy">   -306.85998162 </i>
   </energy>
  </scstep>
  <scstep>
   <time name="dav">  539.28  541.34</time>
   <time name="total">  564.34  566.51</time>
   <energy>
    <i name="e_fr_energy">   -308.14125207 </i>
    <i name="e_wo_entrp">   -308.12093086 </i>
    <i name="e_0_energy">   -308.13447833 </i>
   </energy>
  </scstep>
  <scstep>
   <time name="dav">  517.60  520.47</time>
   <time name="total">  544.05  547.02</time>
   <energy>
    <i name="e_fr_energy">   -280.62872158 </i>
    <i name="e_wo_entrp">   -280.59765430 </i>
    <i name="e_0_energy">   -280.61836582 </i>
   </energy>
  </scstep>
  <scstep>
   <time name="dav">  547.69  550.47</time>
   <time name="total">  574.78  577.67</time>
   <energy>
    <i name="e_fr_energy">   -276.24341962 </i>
    <i name="e_wo_entrp">   -276.23171923 </i>
    <i name="e_0_energy">   -276.23951949 </i>
   </energy>
  </scstep>
  <scstep>
   <time name="dav">  512.88  515.46</time>
   <time name="total">  539.56  542.24</time>
   <energy>
    <i name="e_fr_energy">   -276.33415662 </i>
    <i name="e_wo_entrp">   -276.31778787 </i>
    <i name="e_0_energy">   -276.32870037 </i>
   </energy>
  </scstep>
  <scstep>
   <time name="dav">  519.92  522.89</time>
   <time name="total">  546.44  549.53</time>
   <energy>
    <i name="e_fr_energy">   -276.19403716 </i>
    <i name="e_wo_entrp">   -276.17877698 </i>
    <i name="e_0_energy">   -276.18895044 </i>
   </energy>
  </scstep>
  <scstep>
   <time name="dav">  596.09  599.52</time>
   <time name="total">  622.66  626.20</time>
   <energy>
    <i name="e_fr_energy">   -276.19474059 </i>
    <i name="e_wo_entrp">   -276.17972887 </i>
    <i name="e_0_energy">   -276.18973668 </i>
   </energy>
  </scstep>
  <scstep>
   <time name="dav">  522.71  525.56</time>
   <time name="total">  549.42  552.38</time>
   <energy>
    <i name="e_fr_energy">   -276.19461024 </i>
    <i name="e_wo_entrp">   -276.17949431 </i>
    <i name="e_0_energy">   -276.18957160 </i>
   </energy>
  </scstep>
  <scstep>
   <time name="dav">  519.60  522.40</time>
   <time name="total">  546.29  549.26</time>
   <energy>
    <i name="e_fr_energy">   -276.19465127 </i>
    <i name="e_wo_entrp">   -276.17957078 </i>
    <i name="e_0_energy">   -276.18962444 </i>
   </energy>
  </scstep>
  <scstep>
   <time name="dav">  540.15  543.16</time>
   <time name="total">  567.08  570.20</time>
   <energy>
    <i name="e_fr_energy">   -276.19465225 </i>
    <i name="e_wo_entrp">   -276.17955818 </i>
    <i name="e_0_energy">   -276.18962090 </i>
   </energy>
  </scstep>
  <scstep>
   <time name="dav">  536.68  539.67</time>
   <time name="total">  563.51  566.62</time>
   <energy>
    <i name="e_fr_energy">   -276.19465477 </i>
    <i name="e_wo_entrp">   -276.17955314 </i>
    <i name="e_0_energy">   -276.18962089 </i>
   </energy>
  </scstep>
  <scstep>
   <time name="dav">  550.68  553.65</time>
   <time name="total">  577.33  580.43</time>
   <energy>
    <i name="e_fr_energy">   -276.19465412 </i>
    <i name="e_wo_entrp">   -276.17955287 </i>
    <i name="e_0_energy">   -276.18962037 </i>
   </energy>
  </scstep>
  <scstep>
   <time name="dav">  474.36  476.89</time>
   <time name="total">  501.32  503.97</time>
   <energy>
    <i name="e_fr_energy">   -276.19465423 </i>
    <i name="e_wo_entrp">   -276.17955152 </i>
    <i name="e_0_energy">   -276.18961999 </i>
   </energy>
  </scstep>
  <scstep>
   <time name="dav">  443.91  446.27</time>
   <time name="total">  470.80  473.27</time>
   <energy>
    <i name="e_fr_energy">   -276.19465427 </i>
    <i name="e_wo_entrp">   -276.17955155 </i>
    <i name="e_0_energy">   -276.18962003 </i>
   </energy>
  </scstep>
  <scstep>
   <time name="dav">  356.54  358.53</time>
   <time name="total">  383.26  385.38</time>
   <energy>
    <i name="e_fr_energy">   -276.19465425 </i>
    <i name="e_wo_entrp">   -276.17955153 </i>
    <i name="e_0_energy">   -276.18962001 </i>
   </energy>
  </scstep>
  <scstep>
   <time name="dav">  355.01  357.12</time>
   <time name="total">  381.76  384.01</time>
   <energy>
    <i name="e_fr_energy">   -276.19465421 </i>
    <i name="e_wo_entrp">   -276.17955156 </i>
    <i name="e_0_energy">   -276.18961999 </i>
   </energy>
  </scstep>
  <scstep>
   <time name="dav">  353.31  355.02</time>
   <time name="total">  380.29  382.10</time>
   <energy>
    <i name="e_fr_energy">   -276.19465419 </i>
    <i name="e_wo_entrp">   -276.17955159 </i>
    <i name="e_0_energy">   -276.18961999 </i>
   </energy>
  </scstep>
  <scstep>
   <time name="dav">  351.25  353.21</time>
   <time name="total">  352.70  354.67</time>
   <energy>
    <i name="alphaZ">    746.66562666 </i>
    <i name="ewald"> -13043.33220083 </i>
    <i name="hartreedc">  -4824.55555604 </i>
    <i name="XCdc">    931.38640185 </i>
    <i name="pawpsdc">  11136.31721156 </i>
    <i name="pawaedc"> -13086.37660543 </i>
    <i name="eentropy">     -0.01510261 </i>
    <i name="bandstr">  -3716.98528813 </i>
    <i name="atom">  21580.70085878 </i>
    <i name="e_fr_energy">   -276.19465419 </i>
    <i name="e_wo_entrp">   -276.17955158 </i>
    <i name="e_0_energy">   -276.18961999 </i>
   </energy>
  </scstep>
  <parameters_embedded>
   <separator name="dft+d2" >
    <i type="logical" name="LVDW"> F  </i>
   </separator>
  </parameters_embedded>
  <structure>
   <crystal>
    <varray name="basis" >
     <v>       9.22550730       0.00000000       0.00000000 </v>
     <v>      -4.61275365       7.98952369       0.00000000 </v>
     <v>       0.00000000       0.00000000       7.05401601 </v>
    </varray>
    <i name="volume">    519.93324420 </i>
    <varray name="rec_basis" >
     <v>       0.10839512       0.06258195       0.00000000 </v>
     <v>       0.00000000       0.12516391       0.00000000 </v>
     <v>       0.00000000       0.00000000       0.14176322 </v>
    </varray>
   </crystal>
   <varray name="positions" >
    <v>       0.00000000       0.00000000       0.00000000 </v>
    <v>       0.33333333       0.00000000       0.00000000 </v>
    <v>       0.66666667       0.00000000       0.00000000 </v>
    <v>       0.00000000       0.33333333       0.00000000 </v>
    <v>       0.33333333       0.33333333       0.00000000 </v>
    <v>       0.66666667       0.33333333       0.00000000 </v>
    <v>       0.00000000       0.66666667       0.00000000 </v>
    <v>       0.33333333       0.66666667       0.00000000 </v>
    <v>       0.66666667       0.66666667       0.00000000 </v>
    <v>       0.00000000       0.00000000       0.50000000 </v>
    <v>       0.33333333       0.00000000       0.50000000 </v>
    <v>       0.66666667       0.00000000       0.50000000 </v>
    <v>       0.00000000       0.33333333       0.50000000 </v>
    <v>       0.33333333       0.33333333       0.50000000 </v>
    <v>       0.66666667       0.33333333       0.50000000 </v>
    <v>       0.00000000       0.66666667       0.50000000 </v>
    <v>       0.33333333       0.66666667       0.50000000 </v>
    <v>       0.66666667       0.66666667       0.50000000 </v>
    <v>       0.11197219       0.22222222       0.25086108 </v>
    <v>       0.44444444       0.22222222       0.25000000 </v>
    <v>       0.77777778       0.22222222       0.25000000 </v>
    <v>       0.11111111       0.55555556       0.25000000 </v>
    <v>       0.44444444       0.55555556       0.25000000 </v>
    <v>       0.77777778       0.55555556       0.25000000 </v>
    <v>       0.11111111       0.88888889       0.25000000 </v>
    <v>       0.44444444       0.88888889       0.25000000 </v>
    <v>       0.77777778       0.88888889       0.25000000 </v>
    <v>       0.11111111       0.22222222       0.75000000 </v>
    <v>       0.44444444       0.22222222       0.75000000 </v>
    <v>       0.77777778       0.22222222       0.75000000 </v>
    <v>       0.11111111       0.55555556       0.75000000 </v>
    <v>       0.44444444       0.55555556       0.75000000 </v>
    <v>       0.77777778       0.55555556       0.75000000 </v>
    <v>       0.11111111       0.88888889       0.75000000 </v>
    <v>       0.44444444       0.88888889       0.75000000 </v>
    <v>       0.77777778       0.88888889       0.75000000 </v>
    <v>       0.22222222       0.11111111       0.25000000 </v>
    <v>       0.55555556       0.11111111       0.25000000 </v>
    <v>       0.88888889       0.11111111       0.25000000 </v>
    <v>       0.22222222       0.44444444       0.25000000 </v>
    <v>       0.55555556       0.44444444       0.25000000 </v>
    <v>       0.88888889       0.44444444       0.25000000 </v>
    <v>       0.22222222       0.77777778       0.25000000 </v>
    <v>       0.55555556       0.77777778       0.25000000 </v>
    <v>       0.88888889       0.77777778       0.25000000 </v>
    <v>       0.22222222       0.11111111       0.75000000 </v>
    <v>       0.55555556       0.11111111       0.75000000 </v>
    <v>       0.88888889       0.11111111       0.75000000 </v>
    <v>       0.22222222       0.44444444       0.75000000 </v>
    <v>       0.55555556       0.44444444       0.75000000 </v>
    <v>       0.88888889       0.44444444       0.75000000 </v>
    <v>       0.22222222       0.77777778       0.75000000 </v>
    <v>       0.55555556       0.77777778       0.75000000 </v>
    <v>       0.88888889       0.77777778       0.75000000 </v>
   </varray>
  </structure>
  <varray name="forces" >
   <v>      -0.00055005       0.00264596       0.00314245 </v>
   <v>       0.00015938      -0.00000321       0.00003411 </v>
   <v>       0.00137965       0.00071555       0.00009071 </v>
   <v>       0.00639339      -0.00400380       0.00797849 </v>
   <v>       0.00194240       0.00146050      -0.00187744 </v>
   <v>      -0.00048027      -0.00023513       0.00016363 </v>
   <v>       0.00020587       0.00038796       0.00051734 </v>
   <v>       0.00016044      -0.00072125       0.00006323 </v>
   <v>      -0.00022238      -0.00017355      -0.00019207 </v>
   <v>      -0.00058521      -0.00274739       0.00320537 </v>
   <v>       0.00142185      -0.00073706       0.00011892 </v>
   <v>       0.00011943      -0.00000725       0.00004953 </v>
   <v>       0.00196319      -0.00146568      -0.00189308 </v>
   <v>       0.00685700       0.00431901       0.00849466 </v>
   <v>      -0.00048470       0.00024515       0.00016282 </v>
   <v>      -0.00021094       0.00014981      -0.00018780 </v>
   <v>       0.00015202       0.00073523       0.00008333 </v>
   <v>       0.00019263      -0.00041569       0.00051561 </v>
   <v>      -0.12956164       0.00112680      -0.06028906 </v>
   <v>       0.01793487       0.00002490      -0.00181026 </v>
   <v>       0.01785344       0.00014884      -0.00175359 </v>
   <v>       0.00707074      -0.00634419      -0.00174767 </v>
   <v>       0.00715536       0.00622819      -0.00181562 </v>
   <v>       0.00360616       0.00000863       0.00210768 </v>
   <v>       0.00704734      -0.00618956      -0.00177630 </v>
   <v>       0.00360626      -0.00000345       0.00210777 </v>
   <v>       0.00717989       0.00613539      -0.00178757 </v>
   <v>       0.00107999      -0.00001382       0.00264490 </v>
   <v>      -0.00053873      -0.00048038      -0.00060642 </v>
   <v>      -0.00050281       0.00045337      -0.00059511 </v>
   <v>      -0.00013670      -0.00024914      -0.00059588 </v>
   <v>      -0.00013981       0.00024286      -0.00060562 </v>
   <v>      -0.00149113       0.00000725       0.00033666 </v>
   <v>      -0.00014510       0.00069403      -0.00060161 </v>
   <v>      -0.00149137      -0.00000005       0.00033658 </v>
   <v>      -0.00013128      -0.00068140      -0.00060003 </v>
   <v>       0.02739640      -0.00867193       0.01466861 </v>
   <v>      -0.00368756      -0.00007764      -0.00242414 </v>
   <v>       0.02569241       0.00752683       0.01481406 </v>
   <v>       0.01252262      -0.00016328       0.01474560 </v>
   <v>      -0.00468980      -0.00129164       0.00055808 </v>
   <v>      -0.00469011       0.00127062       0.00053644 </v>
   <v>      -0.00463476      -0.00053465      -0.00242335 </v>
   <v>      -0.00474490       0.00062283      -0.00242552 </v>
   <v>      -0.00247097       0.00002685       0.00054728 </v>
   <v>      -0.00039194       0.00009157       0.00268008 </v>
   <v>       0.00051227      -0.00000200      -0.00029714 </v>
   <v>      -0.00040461      -0.00009831       0.00264914 </v>
   <v>      -0.00023392       0.00000606       0.00266440 </v>
   <v>       0.00077780       0.00093597       0.00029698 </v>
   <v>       0.00077999      -0.00092558       0.00029108 </v>
   <v>       0.00114079       0.00037501      -0.00029499 </v>
   <v>       0.00115043      -0.00035635      -0.00029936 </v>
   <v>      -0.00083332       0.00000822       0.00029409 </v>
  </varray>
  <varray name="stress" >
   <v>       0.01093468      -0.06601403      -0.00024978 </v>
   <v>      -0.06616821       0.00456541      -0.00001371 </v>
   <v>      -0.00024706      -0.00012585      -0.04623777 </v>
  </varray>
  <energy>
   <i name="e_fr_energy">   -276.19465419 </i>
   <i name="e_wo_entrp">   -276.18961999 </i>
   <i name="e_0_energy">     -0.01510261 </i>
  </energy>
  <time name="totalsc">11063.7911119.28</time>
  <eigenvalues>
   <array>
    <dimension dim="1">band</dimension>
    <dimension dim="2">kpoint</dimension>
    <dimension dim="3">spin</dimension>
    <field>eigene</field>
    <field>occ</field>
    <set>
     <set comment="spin 1">
      <set comment="kpoint 1">
       <r>  -35.8969    1.0000 </r>
       <r>  -35.8967    1.0000 </r>
       <r>  -35.8961    1.0000 </r>
       <r>  -35.8960    1.0000 </r>
       <r>  -35.8959    1.0000 </r>
       <r>  -35.8958    1.0000 </r>
       <r>  -35.8952    1.0000 </r>
       <r>  -35.8951    1.0000 </r>
       <r>  -35.8951    1.0000 </r>
       <r>  -35.8950    1.0000 </r>
       <r>  -35.8947    1.0000 </r>
       <r>  -35.8946    1.0000 </r>
       <r>  -35.8941    1.0000 </r>
       <r>  -35.8940    1.0000 </r>
       <r>  -35.8938    1.0000 </r>
       <r>  -35.8936    1.0000 </r>
       <r>  -35.8929    1.0000 </r>
       <r>  -35.8929    1.0000 </r>
       <r>  -35.8924    1.0000 </r>
       <r>  -35.8922    1.0000 </r>
       <r>  -35.8736    1.0000 </r>
       <r>  -35.8735    1.0000 </r>
       <r>  -35.8729    1.0000 </r>
       <r>  -35.8728    1.0000 </r>
       <r>  -35.8727    1.0000 </r>
       <r>  -35.8727    1.0000 </r>
       <r>  -35.8721    1.0000 </r>
       <r>  -35.8721    1.0000 </r>
       <r>  -35.8720    1.0000 </r>
       <r>  -35.8719    1.0000 </r>
       <r>  -35.8714    1.0000 </r>
       <r>  -35.8713    1.0000 </r>
       <r>  -35.8656    1.0000 </r>
       <r>  -35.8656    1.0000 </r>
       <r>  -35.8645    1.0000 </r>
       <r>  -35.8644    1.0000 </r>
       <r>  -35.8564    1.0000 </r>
       <r>  -35.8522    1.0000 </r>
       <r>  -35.8515    1.0000 </r>
       <r>  -35.8514    1.0000 </r>
       <r>  -35.8513    1.0000 </r>
       <r>  -35.8512    1.0000 </r>
       <r>  -35.8508    1.0000 </r>
       <r>  -35.8490    1.0000 </r>
       <r>  -35.8488    1.0000 </r>
       <r>  -35.8486    1.0000 </r>
       <r>  -35.8450    1.0000 </r>
       <r>  -35.8445    1.0000 </r>
       <r>  -35.8444    1.0000 </r>
       <r>  -35.8443    1.0000 </r>
       <r>  -35.8442    1.0000 </r>
       <r>  -35.8436    1.0000 </r>
       <r>  -35.8423    1.0000 </r>
       <r>  -35.8417    1.0000 </r>
       <r>   -6.4318    1.0000 </r>
       <r>   -5.1477    1.0000 </r>
       <r>   -4.5176    1.0000 </r>
       <r>   -4.5149    1.0000 </r>
       <r>   -4.5146    1.0000 </r>
       <r>   -4.5146    1.0000 </r>
       <r>   -4.5144    1.0000 </r>
       <r>   -4.5118    1.0000 </r>
       <r>   -3.4140    1.0000 </r>
       <r>   -3.4110    1.0000 </r>
       <r>   -3.4107    1.0000 </r>
       <r>   -3.4107    1.0000 </r>
       <r>   -3.4104    1.0000 </r>
       <r>   -3.4074    1.0000 </r>
       <r>   -1.4348    1.0000 </r>
       <r>   -1.2429    1.0000 </r>
       <r>   -1.2409    1.0000 </r>
       <r>   -1.2405    1.0000 </r>
       <r>   -1.2386    1.0000 </r>
       <r>   -0.3672    1.0000 </r>
       <r>   -0.3650    1.0000 </r>
       <r>   -0.3646    1.0000 </r>
       <r>   -0.3624    1.0000 </r>
       <r>    0.1538    1.0000 </r>
       <r>    0.1552    1.0000 </r>
       <r>    0.7087    1.0000 </r>
       <r>    0.7108    1.0000 </r>
       <r>    0.7108    1.0000 </r>
       <r>    0.7108    1.0000 </r>
       <r>    0.7109    1.0000 </r>
       <r>    0.7128    1.0000 </r>
       <r>    0.8264    1.0000 </r>
       <r>    0.8278    1.0000 </r>
       <r>    0.9255    1.0000 </r>
       <r>    0.9274    1.0000 </r>
       <r>    0.9286    1.0000 </r>
       <r>    0.9286    1.0000 </r>
       <r>    0.9298    1.0000 </r>
       <r>    0.9317    1.0000 </r>
       <r>    1.6643    1.0000 </r>
       <r>    1.6663    1.0000 </r>
       <r>    1.6677    1.0000 </r>
       <r>    1.6677    1.0000 </r>
       <r>    1.6691    1.0000 </r>
       <r>    1.6711    1.0000 </r>
       <r>    3.0332    1.0000 </r>
       <r>    4.0183    1.0000 </r>
       <r>    4.0201    1.0000 </r>
       <r>    4.0202    1.0000 </r>
       <r>    4.0220    1.0000 </r>
       <r>    4.2946    1.0000 </r>
       <r>    4.2980    1.0000 </r>
       <r>    4.2986    1.0000 </r>
       <r>    4.2986    1.0000 </r>
       <r>    4.2992    1.0000 </r>
       <r>    4.3025    1.0000 </r>
       <r>    4.5892    1.0000 </r>
       <r>    4.5927    1.0000 </r>
       <r>    4.5933    1.0000 </r>
       <r>    4.5933    1.0000 </r>
       <r>    4.5939    1.0000 </r>
       <r>    4.5974    1.0000 </r>
       <r>    4.8435    1.0000 </r>
       <r>    4.8465    1.0000 </r>
       <r>    4.8466    1.0000 </r>
       <r>    4.8466    1.0000 </r>
       <r>    4.8467    1.0000 </r>
       <r>    4.8498    1.0000 </r>
       <r>    6.3951   -0.0064 </r>
       <r>    6.4006   -0.0058 </r>
       <r>    6.7630    0.0000 </r>
       <r>    6.7688    0.0000 </r>
       <r>    7.3189    0.0000 </r>
       <r>    7.3223    0.0000 </r>
       <r>    7.3225    0.0000 </r>
       <r>    7.3225    0.0000 </r>
       <r>    7.3226    0.0000 </r>
       <r>    7.3258    0.0000 </r>
       <r>    7.6204    0.0000 </r>
       <r>    7.7894    0.0000 </r>
       <r>    7.7923    0.0000 </r>
       <r>    7.7924    0.0000 </r>
       <r>    7.7953    0.0000 </r>
       <r>    9.2539    0.0000 </r>
       <r>    9.2556    0.0000 </r>
       <r>    9.2561    0.0000 </r>
       <r>    9.2561    0.0000 </r>
       <r>    9.2566    0.0000 </r>
       <r>    9.2582    0.0000 </r>
       <r>    9.6217    0.0000 </r>
       <r>    9.6224    0.0000 </r>
       <r>   11.0611    0.0000 </r>
       <r>   11.0633    0.0000 </r>
       <r>   11.0635    0.0000 </r>
       <r>   11.0635    0.0000 </r>
       <r>   11.0636    0.0000 </r>
       <r>   11.0658    0.0000 </r>
       <r>   11.2081    0.0000 </r>
       <r>   11.2132    0.0000 </r>
       <r>   11.2135    0.0000 </r>
       <r>   11.2135    0.0000 </r>
       <r>   11.2137    0.0000 </r>
       <r>   11.2190    0.0000 </r>
       <r>   12.0173    0.0000 </r>
       <r>   12.0214    0.0000 </r>
       <r>   12.0224    0.0000 </r>
      </set>
      <set comment="kpoint 2">
       <r>  -35.9015    1.0000 </r>
       <r>  -35.9003    1.0000 </r>
       <r>  -35.8991    1.0000 </r>
       <r>  -35.8988    1.0000 </r>
       <r>  -35.8979    1.0000 </r>
       <r>  -35.8978    1.0000 </r>
       <r>  -35.8975    1.0000 </r>
       <r>  -35.8974    1.0000 </r>
       <r>  -35.8963    1.0000 </r>
       <r>  -35.8962    1.0000 </r>
       <r>  -35.8931    1.0000 </r>
       <r>  -35.8928    1.0000 </r>
       <r>  -35.8919    1.0000 </r>
       <r>  -35.8916    1.0000 </r>
       <r>  -35.8898    1.0000 </r>
       <r>  -35.8897    1.0000 </r>
       <r>  -35.8894    1.0000 </r>
       <r>  -35.8886    1.0000 </r>
       <r>  -35.8884    1.0000 </r>
       <r>  -35.8880    1.0000 </r>
       <r>  -35.8746    1.0000 </r>
       <r>  -35.8744    1.0000 </r>
       <r>  -35.8742    1.0000 </r>
       <r>  -35.8735    1.0000 </r>
       <r>  -35.8732    1.0000 </r>
       <r>  -35.8730    1.0000 </r>
       <r>  -35.8728    1.0000 </r>
       <r>  -35.8726    1.0000 </r>
       <r>  -35.8718    1.0000 </r>
       <r>  -35.8714    1.0000 </r>
       <r>  -35.8713    1.0000 </r>
       <r>  -35.8702    1.0000 </r>
       <r>  -35.8668    1.0000 </r>
       <r>  -35.8659    1.0000 </r>
       <r>  -35.8656    1.0000 </r>
       <r>  -35.8648    1.0000 </r>
       <r>  -35.8562    1.0000 </r>
       <r>  -35.8526    1.0000 </r>
       <r>  -35.8521    1.0000 </r>
       <r>  -35.8517    1.0000 </r>
       <r>  -35.8510    1.0000 </r>
       <r>  -35.8506    1.0000 </r>
       <r>  -35.8504    1.0000 </r>
       <r>  -35.8491    1.0000 </r>
       <r>  -35.8487    1.0000 </r>
       <r>  -35.8486    1.0000 </r>
       <r>  -35.8455    1.0000 </r>
       <r>  -35.8450    1.0000 </r>
       <r>  -35.8446    1.0000 </r>
       <r>  -35.8440    1.0000 </r>
       <r>  -35.8437    1.0000 </r>
       <r>  -35.8433    1.0000 </r>
       <r>  -35.8424    1.0000 </r>
       <r>  -35.8418    1.0000 </r>
       <r>   -6.3775    1.0000 </r>
       <r>   -5.0992    1.0000 </r>
       <r>   -5.0923    1.0000 </r>
       <r>   -4.7770    1.0000 </r>
       <r>   -4.7758    1.0000 </r>
       <r>   -4.1521    1.0000 </r>
       <r>   -4.1509    1.0000 </r>
       <r>   -3.9381    1.0000 </r>
       <r>   -3.8434    1.0000 </r>
       <r>   -3.6507    1.0000 </r>
       <r>   -3.6494    1.0000 </r>
       <r>   -3.0784    1.0000 </r>
       <r>   -3.0770    1.0000 </r>
       <r>   -2.7943    1.0000 </r>
       <r>   -1.8401    1.0000 </r>
       <r>   -1.8386    1.0000 </r>
       <r>   -1.3727    1.0000 </r>
       <r>   -0.9318    1.0000 </r>
       <r>   -0.9302    1.0000 </r>
       <r>   -0.8964    1.0000 </r>
       <r>   -0.8952    1.0000 </r>
       <r>   -0.1543    1.0000 </r>
       <r>   -0.0481    1.0000 </r>
       <r>   -0.0467    1.0000 </r>
       <r>    0.0785    1.0000 </r>
       <r>    0.4055    1.0000 </r>
       <r>    0.4066    1.0000 </r>
       <r>    0.4270    1.0000 </r>
       <r>    0.4279    1.0000 </r>
       <r>    0.5304    1.0000 </r>
       <r>    0.5318    1.0000 </r>
       <r>    0.6481    1.0000 </r>
       <r>    1.0986    1.0000 </r>
       <r>    1.0995    1.0000 </r>
       <r>    1.1737    1.0000 </r>
       <r>    1.1750    1.0000 </r>
       <r>    1.1886    1.0000 </r>
       <r>    1.1899    1.0000 </r>
       <r>    1.4132    1.0000 </r>
       <r>    1.5108    1.0000 </r>
       <r>    1.5121    1.0000 </r>
       <r>    2.0657    1.0000 </r>
       <r>    2.2151    1.0000 </r>
       <r>    2.2167    1.0000 </r>
       <r>    2.7397    1.0000 </r>
       <r>    3.0858    1.0000 </r>
       <r>    3.3997    1.0000 </r>
       <r>    3.4006    1.0000 </r>
       <r>    3.9128    1.0000 </r>
       <r>    3.9147    1.0000 </r>
       <r>    4.0514    1.0000 </r>
       <r>    4.2092    1.0000 </r>
       <r>    4.2112    1.0000 </r>
       <r>    4.2489    1.0000 </r>
       <r>    4.2510    1.0000 </r>
       <r>    4.3149    1.0000 </r>
       <r>    4.3390    1.0000 </r>
       <r>    4.5504    1.0000 </r>
       <r>    4.5527    1.0000 </r>
       <r>    4.5902    1.0000 </r>
       <r>    4.5912    1.0000 </r>
       <r>    4.6103    1.0000 </r>
       <r>    4.6118    1.0000 </r>
       <r>    4.6308    1.0000 </r>
       <r>    4.9351    1.0000 </r>
       <r>    5.1711    1.0000 </r>
       <r>    5.1725    1.0000 </r>
       <r>    5.4224    1.0003 </r>
       <r>    6.1156    0.0514 </r>
       <r>    6.1574   -0.0073 </r>
       <r>    6.2620   -0.0317 </r>
       <r>    6.5103   -0.0006 </r>
       <r>    6.6238    0.0000 </r>
       <r>    6.7171    0.0000 </r>
       <r>    6.7185    0.0000 </r>
       <r>    7.1876    0.0000 </r>
       <r>    7.1890    0.0000 </r>
       <r>    7.6682    0.0000 </r>
       <r>    7.9218    0.0000 </r>
       <r>    7.9233    0.0000 </r>
       <r>    8.3937    0.0000 </r>
       <r>    8.3953    0.0000 </r>
       <r>    8.5914    0.0000 </r>
       <r>    8.8126    0.0000 </r>
       <r>    9.1213    0.0000 </r>
       <r>    9.1219    0.0000 </r>
       <r>    9.5936    0.0000 </r>
       <r>    9.5948    0.0000 </r>
       <r>    9.6499    0.0000 </r>
       <r>    9.8399    0.0000 </r>
       <r>    9.8406    0.0000 </r>
       <r>   10.2108    0.0000 </r>
       <r>   10.6661    0.0000 </r>
       <r>   10.6684    0.0000 </r>
       <r>   11.0125    0.0000 </r>
       <r>   11.2148    0.0000 </r>
       <r>   11.2158    0.0000 </r>
       <r>   11.2732    0.0000 </r>
       <r>   11.3989    0.0000 </r>
       <r>   11.4011    0.0000 </r>
       <r>   11.7101    0.0000 </r>
       <r>   11.7127    0.0000 </r>
       <r>   11.7905    0.0000 </r>
       <r>   11.7912    0.0000 </r>
       <r>   11.8873    0.0000 </r>
       <r>   12.1974    0.0000 </r>
      </set>
      <set comment="kpoint 3">
       <r>  -35.9050    1.0000 </r>
       <r>  -35.9037    1.0000 </r>
       <r>  -35.9008    1.0000 </r>
       <r>  -35.9006    1.0000 </r>
       <r>  -35.9000    1.0000 </r>
       <r>  -35.9000    1.0000 </r>
       <r>  -35.8994    1.0000 </r>
       <r>  -35.8994    1.0000 </r>
       <r>  -35.8987    1.0000 </r>
       <r>  -35.8986    1.0000 </r>
       <r>  -35.8905    1.0000 </r>
       <r>  -35.8901    1.0000 </r>
       <r>  -35.8892    1.0000 </r>
       <r>  -35.8889    1.0000 </r>
       <r>  -35.8851    1.0000 </r>
       <r>  -35.8851    1.0000 </r>
       <r>  -35.8839    1.0000 </r>
       <r>  -35.8839    1.0000 </r>
       <r>  -35.8824    1.0000 </r>
       <r>  -35.8812    1.0000 </r>
       <r>  -35.8771    1.0000 </r>
       <r>  -35.8769    1.0000 </r>
       <r>  -35.8760    1.0000 </r>
       <r>  -35.8758    1.0000 </r>
       <r>  -35.8752    1.0000 </r>
       <r>  -35.8740    1.0000 </r>
       <r>  -35.8735    1.0000 </r>
       <r>  -35.8731    1.0000 </r>
       <r>  -35.8724    1.0000 </r>
       <r>  -35.8720    1.0000 </r>
       <r>  -35.8703    1.0000 </r>
       <r>  -35.8697    1.0000 </r>
       <r>  -35.8691    1.0000 </r>
       <r>  -35.8685    1.0000 </r>
       <r>  -35.8667    1.0000 </r>
       <r>  -35.8656    1.0000 </r>
       <r>  -35.8556    1.0000 </r>
       <r>  -35.8536    1.0000 </r>
       <r>  -35.8524    1.0000 </r>
       <r>  -35.8519    1.0000 </r>
       <r>  -35.8505    1.0000 </r>
       <r>  -35.8501    1.0000 </r>
       <r>  -35.8499    1.0000 </r>
       <r>  -35.8494    1.0000 </r>
       <r>  -35.8490    1.0000 </r>
       <r>  -35.8481    1.0000 </r>
       <r>  -35.8464    1.0000 </r>
       <r>  -35.8453    1.0000 </r>
       <r>  -35.8448    1.0000 </r>
       <r>  -35.8436    1.0000 </r>
       <r>  -35.8432    1.0000 </r>
       <r>  -35.8429    1.0000 </r>
       <r>  -35.8426    1.0000 </r>
       <r>  -35.8420    1.0000 </r>
       <r>   -6.2151    1.0000 </r>
       <r>   -5.5705    1.0000 </r>
       <r>   -4.9535    1.0000 </r>
       <r>   -4.9348    1.0000 </r>
       <r>   -4.9336    1.0000 </r>
       <r>   -4.3722    1.0000 </r>
       <r>   -3.7948    1.0000 </r>
       <r>   -3.7935    1.0000 </r>
       <r>   -3.6913    1.0000 </r>
       <r>   -3.6901    1.0000 </r>
       <r>   -3.0971    1.0000 </r>
       <r>   -2.6544    1.0000 </r>
       <r>   -2.6529    1.0000 </r>
       <r>   -2.5109    1.0000 </r>
       <r>   -2.5096    1.0000 </r>
       <r>   -2.1050    1.0000 </r>
       <r>   -1.5603    1.0000 </r>
       <r>   -1.5587    1.0000 </r>
       <r>   -1.1870    1.0000 </r>
       <r>   -1.1526    1.0000 </r>
       <r>   -0.6684    1.0000 </r>
       <r>   -0.6673    1.0000 </r>
       <r>   -0.4559    1.0000 </r>
       <r>   -0.2890    1.0000 </r>
       <r>   -0.0374    1.0000 </r>
       <r>   -0.0363    1.0000 </r>
       <r>    0.1603    1.0000 </r>
       <r>    0.1616    1.0000 </r>
       <r>    0.2547    1.0000 </r>
       <r>    0.2556    1.0000 </r>
       <r>    0.7549    1.0000 </r>
       <r>    0.7561    1.0000 </r>
       <r>    1.3335    1.0000 </r>
       <r>    1.3348    1.0000 </r>
       <r>    1.5816    1.0000 </r>
       <r>    1.5825    1.0000 </r>
       <r>    1.9394    1.0000 </r>
       <r>    1.9409    1.0000 </r>
       <r>    2.1018    1.0000 </r>
       <r>    2.1028    1.0000 </r>
       <r>    2.1046    1.0000 </r>
       <r>    2.7608    1.0000 </r>
       <r>    2.7617    1.0000 </r>
       <r>    2.7713    1.0000 </r>
       <r>    2.7730    1.0000 </r>
       <r>    3.1657    1.0000 </r>
       <r>    3.1673    1.0000 </r>
       <r>    3.2236    1.0000 </r>
       <r>    3.2428    1.0000 </r>
       <r>    3.5961    1.0000 </r>
       <r>    3.5978    1.0000 </r>
       <r>    3.8019    1.0000 </r>
       <r>    3.8034    1.0000 </r>
       <r>    3.8293    1.0000 </r>
       <r>    3.8623    1.0000 </r>
       <r>    3.9009    1.0000 </r>
       <r>    4.1842    1.0000 </r>
       <r>    4.2230    1.0000 </r>
       <r>    4.2249    1.0000 </r>
       <r>    4.4674    1.0000 </r>
       <r>    4.4689    1.0000 </r>
       <r>    5.0351    1.0000 </r>
       <r>    5.1131    1.0000 </r>
       <r>    5.1142    1.0000 </r>
       <r>    5.1874    1.0000 </r>
       <r>    5.3519    1.0000 </r>
       <r>    5.3672    1.0001 </r>
       <r>    5.5792    1.0077 </r>
       <r>    5.5806    1.0078 </r>
       <r>    5.8258    0.9849 </r>
       <r>    5.9203    0.7471 </r>
       <r>    5.9507    0.6299 </r>
       <r>    6.1486    0.0018 </r>
       <r>    6.1500    0.0003 </r>
       <r>    6.2679   -0.0306 </r>
       <r>    6.6034   -0.0001 </r>
       <r>    6.6048    0.0000 </r>
       <r>    7.8167    0.0000 </r>
       <r>    8.4028    0.0000 </r>
       <r>    8.4162    0.0000 </r>
       <r>    8.4178    0.0000 </r>
       <r>    8.9800    0.0000 </r>
       <r>    8.9818    0.0000 </r>
       <r>    9.0663    0.0000 </r>
       <r>    9.0670    0.0000 </r>
       <r>    9.4158    0.0000 </r>
       <r>    9.8764    0.0000 </r>
       <r>    9.9174    0.0000 </r>
       <r>   10.1089    0.0000 </r>
       <r>   10.1112    0.0000 </r>
       <r>   10.1235    0.0000 </r>
       <r>   10.1242    0.0000 </r>
       <r>   10.4607    0.0000 </r>
       <r>   10.4615    0.0000 </r>
       <r>   11.1689    0.0000 </r>
       <r>   11.2870    0.0000 </r>
       <r>   11.2877    0.0000 </r>
       <r>   11.5727    0.0000 </r>
       <r>   11.6955    0.0000 </r>
       <r>   11.6966    0.0000 </r>
       <r>   11.8044    0.0000 </r>
       <r>   12.0850    0.0000 </r>
       <r>   12.0877    0.0000 </r>
       <r>   12.1941    0.0000 </r>
       <r>   12.2173    0.0000 </r>
       <r>   12.2196    0.0000 </r>
      </set>
      <set comment="kpoint 4">
       <r>  -35.9063    1.0000 </r>
       <r>  -35.9049    1.0000 </r>
       <r>  -35.9014    1.0000 </r>
       <r>  -35.9012    1.0000 </r>
       <r>  -35.9009    1.0000 </r>
       <r>  -35.9009    1.0000 </r>
       <r>  -35.9000    1.0000 </r>
       <r>  -35.8999    1.0000 </r>
       <r>  -35.8996    1.0000 </r>
       <r>  -35.8994    1.0000 </r>
       <r>  -35.8894    1.0000 </r>
       <r>  -35.8889    1.0000 </r>
       <r>  -35.8881    1.0000 </r>
       <r>  -35.8877    1.0000 </r>
       <r>  -35.8811    1.0000 </r>
       <r>  -35.8808    1.0000 </r>
       <r>  -35.8806    1.0000 </r>
       <r>  -35.8805    1.0000 </r>
       <r>  -35.8798    1.0000 </r>
       <r>  -35.8797    1.0000 </r>
       <r>  -35.8793    1.0000 </r>
       <r>  -35.8792    1.0000 </r>
       <r>  -35.8762    1.0000 </r>
       <r>  -35.8755    1.0000 </r>
       <r>  -35.8755    1.0000 </r>
       <r>  -35.8748    1.0000 </r>
       <r>  -35.8745    1.0000 </r>
       <r>  -35.8743    1.0000 </r>
       <r>  -35.8738    1.0000 </r>
       <r>  -35.8734    1.0000 </r>
       <r>  -35.8727    1.0000 </r>
       <r>  -35.8720    1.0000 </r>
       <r>  -35.8684    1.0000 </r>
       <r>  -35.8677    1.0000 </r>
       <r>  -35.8671    1.0000 </r>
       <r>  -35.8667    1.0000 </r>
       <r>  -35.8550    1.0000 </r>
       <r>  -35.8545    1.0000 </r>
       <r>  -35.8525    1.0000 </r>
       <r>  -35.8520    1.0000 </r>
       <r>  -35.8502    1.0000 </r>
       <r>  -35.8497    1.0000 </r>
       <r>  -35.8497    1.0000 </r>
       <r>  -35.8496    1.0000 </r>
       <r>  -35.8493    1.0000 </r>
       <r>  -35.8475    1.0000 </r>
       <r>  -35.8472    1.0000 </r>
       <r>  -35.8453    1.0000 </r>
       <r>  -35.8449    1.0000 </r>
       <r>  -35.8432    1.0000 </r>
       <r>  -35.8430    1.0000 </r>
       <r>  -35.8429    1.0000 </r>
       <r>  -35.8428    1.0000 </r>
       <r>  -35.8421    1.0000 </r>
       <r>   -5.9463    1.0000 </r>
       <r>   -5.9449    1.0000 </r>
       <r>   -4.9876    1.0000 </r>
       <r>   -4.9864    1.0000 </r>
       <r>   -4.7117    1.0000 </r>
       <r>   -4.7102    1.0000 </r>
       <r>   -3.8430    1.0000 </r>
       <r>   -3.8416    1.0000 </r>
       <r>   -3.1412    1.0000 </r>
       <r>   -3.1394    1.0000 </r>
       <r>   -3.1390    1.0000 </r>
       <r>   -3.1369    1.0000 </r>
       <r>   -2.5105    1.0000 </r>
       <r>   -2.1462    1.0000 </r>
       <r>   -2.1441    1.0000 </r>
       <r>   -2.1437    1.0000 </r>
       <r>   -2.1414    1.0000 </r>
       <r>   -1.8240    1.0000 </r>
       <r>   -1.5624    1.0000 </r>
       <r>   -0.9151    1.0000 </r>
       <r>   -0.8805    1.0000 </r>
       <r>   -0.8796    1.0000 </r>
       <r>   -0.3954    1.0000 </r>
       <r>   -0.3939    1.0000 </r>
       <r>   -0.3931    1.0000 </r>
       <r>   -0.3922    1.0000 </r>
       <r>    0.1968    1.0000 </r>
       <r>    0.1977    1.0000 </r>
       <r>    0.4163    1.0000 </r>
       <r>    0.4179    1.0000 </r>
       <r>    0.4188    1.0000 </r>
       <r>    0.4197    1.0000 </r>
       <r>    2.1424    1.0000 </r>
       <r>    2.1439    1.0000 </r>
       <r>    2.1439    1.0000 </r>
       <r>    2.1457    1.0000 </r>
       <r>    2.2567    1.0000 </r>
       <r>    2.2571    1.0000 </r>
       <r>    2.2585    1.0000 </r>
       <r>    2.2593    1.0000 </r>
       <r>    2.4519    1.0000 </r>
       <r>    2.4535    1.0000 </r>
       <r>    2.4635    1.0000 </r>
       <r>    2.7834    1.0000 </r>
       <r>    2.7840    1.0000 </r>
       <r>    2.7852    1.0000 </r>
       <r>    2.7864    1.0000 </r>
       <r>    3.1056    1.0000 </r>
       <r>    3.1074    1.0000 </r>
       <r>    3.4934    1.0000 </r>
       <r>    3.4944    1.0000 </r>
       <r>    3.5020    1.0000 </r>
       <r>    3.5035    1.0000 </r>
       <r>    3.8502    1.0000 </r>
       <r>    3.9492    1.0000 </r>
       <r>    3.9507    1.0000 </r>
       <r>    4.1322    1.0000 </r>
       <r>    4.3513    1.0000 </r>
       <r>    4.3549    1.0000 </r>
       <r>    4.4196    1.0000 </r>
       <r>    4.4210    1.0000 </r>
       <r>    4.7321    1.0000 </r>
       <r>    4.8844    1.0000 </r>
       <r>    4.8884    1.0000 </r>
       <r>    5.4800    1.0011 </r>
       <r>    5.4843    1.0012 </r>
       <r>    5.6191    1.0139 </r>
       <r>    5.6212    1.0143 </r>
       <r>    5.6214    1.0143 </r>
       <r>    5.6229    1.0146 </r>
       <r>    5.8116    1.0020 </r>
       <r>    5.8160    0.9971 </r>
       <r>    6.0595    0.1973 </r>
       <r>    6.0617    0.1902 </r>
       <r>    6.0617    0.1901 </r>
       <r>    6.0646    0.1810 </r>
       <r>    6.1964   -0.0311 </r>
       <r>    8.0647    0.0000 </r>
       <r>    8.0653    0.0000 </r>
       <r>    8.6211    0.0000 </r>
       <r>    8.6229    0.0000 </r>
       <r>    9.0468    0.0000 </r>
       <r>    9.0475    0.0000 </r>
       <r>    9.0797    0.0000 </r>
       <r>    9.5468    0.0000 </r>
       <r>    9.5505    0.0000 </r>
       <r>    9.5507    0.0000 </r>
       <r>    9.5532    0.0000 </r>
       <r>    9.9347    0.0000 </r>
       <r>   10.7136    0.0000 </r>
       <r>   10.7148    0.0000 </r>
       <r>   10.7153    0.0000 </r>
       <r>   10.7159    0.0000 </r>
       <r>   11.2548    0.0000 </r>
       <r>   11.2575    0.0000 </r>
       <r>   11.3135    0.0000 </r>
       <r>   11.4059    0.0000 </r>
       <r>   11.4067    0.0000 </r>
       <r>   11.4070    0.0000 </r>
       <r>   11.4082    0.0000 </r>
       <r>   11.7762    0.0000 </r>
       <r>   11.9032    0.0000 </r>
       <r>   11.9060    0.0000 </r>
       <r>   12.2293    0.0000 </r>
       <r>   12.2349    0.0000 </r>
       <r>   12.2502    0.0000 </r>
      </set>
      <set comment="kpoint 5">
       <r>  -35.9016    1.0000 </r>
       <r>  -35.9003    1.0000 </r>
       <r>  -35.8991    1.0000 </r>
       <r>  -35.8988    1.0000 </r>
       <r>  -35.8978    1.0000 </r>
       <r>  -35.8978    1.0000 </r>
       <r>  -35.8975    1.0000 </r>
       <r>  -35.8974    1.0000 </r>
       <r>  -35.8963    1.0000 </r>
       <r>  -35.8962    1.0000 </r>
       <r>  -35.8931    1.0000 </r>
       <r>  -35.8928    1.0000 </r>
       <r>  -35.8919    1.0000 </r>
       <r>  -35.8916    1.0000 </r>
       <r>  -35.8899    1.0000 </r>
       <r>  -35.8897    1.0000 </r>
       <r>  -35.8893    1.0000 </r>
       <r>  -35.8886    1.0000 </r>
       <r>  -35.8884    1.0000 </r>
       <r>  -35.8880    1.0000 </r>
       <r>  -35.8746    1.0000 </r>
       <r>  -35.8746    1.0000 </r>
       <r>  -35.8741    1.0000 </r>
       <r>  -35.8735    1.0000 </r>
       <r>  -35.8733    1.0000 </r>
       <r>  -35.8730    1.0000 </r>
       <r>  -35.8728    1.0000 </r>
       <r>  -35.8726    1.0000 </r>
       <r>  -35.8718    1.0000 </r>
       <r>  -35.8714    1.0000 </r>
       <r>  -35.8713    1.0000 </r>
       <r>  -35.8702    1.0000 </r>
       <r>  -35.8668    1.0000 </r>
       <r>  -35.8659    1.0000 </r>
       <r>  -35.8657    1.0000 </r>
       <r>  -35.8647    1.0000 </r>
       <r>  -35.8562    1.0000 </r>
       <r>  -35.8527    1.0000 </r>
       <r>  -35.8520    1.0000 </r>
       <r>  -35.8516    1.0000 </r>
       <r>  -35.8511    1.0000 </r>
       <r>  -35.8507    1.0000 </r>
       <r>  -35.8503    1.0000 </r>
       <r>  -35.8491    1.0000 </r>
       <r>  -35.8487    1.0000 </r>
       <r>  -35.8486    1.0000 </r>
       <r>  -35.8455    1.0000 </r>
       <r>  -35.8450    1.0000 </r>
       <r>  -35.8446    1.0000 </r>
       <r>  -35.8440    1.0000 </r>
       <r>  -35.8437    1.0000 </r>
       <r>  -35.8433    1.0000 </r>
       <r>  -35.8424    1.0000 </r>
       <r>  -35.8418    1.0000 </r>
       <r>   -6.3775    1.0000 </r>
       <r>   -5.0991    1.0000 </r>
       <r>   -5.0924    1.0000 </r>
       <r>   -4.7775    1.0000 </r>
       <r>   -4.7752    1.0000 </r>
       <r>   -4.1527    1.0000 </r>
       <r>   -4.1503    1.0000 </r>
       <r>   -3.9381    1.0000 </r>
       <r>   -3.8435    1.0000 </r>
       <r>   -3.6514    1.0000 </r>
       <r>   -3.6487    1.0000 </r>
       <r>   -3.0790    1.0000 </r>
       <r>   -3.0763    1.0000 </r>
       <r>   -2.7943    1.0000 </r>
       <r>   -1.8405    1.0000 </r>
       <r>   -1.8382    1.0000 </r>
       <r>   -1.3727    1.0000 </r>
       <r>   -0.9323    1.0000 </r>
       <r>   -0.9297    1.0000 </r>
       <r>   -0.8966    1.0000 </r>
       <r>   -0.8948    1.0000 </r>
       <r>   -0.1549    1.0000 </r>
       <r>   -0.0483    1.0000 </r>
       <r>   -0.0462    1.0000 </r>
       <r>    0.0786    1.0000 </r>
       <r>    0.4054    1.0000 </r>
       <r>    0.4073    1.0000 </r>
       <r>    0.4266    1.0000 </r>
       <r>    0.4283    1.0000 </r>
       <r>    0.5298    1.0000 </r>
       <r>    0.5322    1.0000 </r>
       <r>    0.6475    1.0000 </r>
       <r>    1.0982    1.0000 </r>
       <r>    1.0999    1.0000 </r>
       <r>    1.1737    1.0000 </r>
       <r>    1.1757    1.0000 </r>
       <r>    1.1878    1.0000 </r>
       <r>    1.1903    1.0000 </r>
       <r>    1.4135    1.0000 </r>
       <r>    1.5108    1.0000 </r>
       <r>    1.5129    1.0000 </r>
       <r>    2.0649    1.0000 </r>
       <r>    2.2153    1.0000 </r>
       <r>    2.2175    1.0000 </r>
       <r>    2.7388    1.0000 </r>
       <r>    3.0858    1.0000 </r>
       <r>    3.3993    1.0000 </r>
       <r>    3.4009    1.0000 </r>
       <r>    3.9121    1.0000 </r>
       <r>    3.9144    1.0000 </r>
       <r>    4.0524    1.0000 </r>
       <r>    4.2086    1.0000 </r>
       <r>    4.2106    1.0000 </r>
       <r>    4.2483    1.0000 </r>
       <r>    4.2507    1.0000 </r>
       <r>    4.3151    1.0000 </r>
       <r>    4.3400    1.0000 </r>
       <r>    4.5498    1.0000 </r>
       <r>    4.5520    1.0000 </r>
       <r>    4.5897    1.0000 </r>
       <r>    4.5917    1.0000 </r>
       <r>    4.6096    1.0000 </r>
       <r>    4.6122    1.0000 </r>
       <r>    4.6320    1.0000 </r>
       <r>    4.9363    1.0000 </r>
       <r>    5.1704    1.0000 </r>
       <r>    5.1729    1.0000 </r>
       <r>    5.4231    1.0003 </r>
       <r>    6.1134    0.0557 </r>
       <r>    6.1566   -0.0066 </r>
       <r>    6.2643   -0.0313 </r>
       <r>    6.5080   -0.0006 </r>
       <r>    6.6262    0.0000 </r>
       <r>    6.7167    0.0000 </r>
       <r>    6.7194    0.0000 </r>
       <r>    7.1869    0.0000 </r>
       <r>    7.1896    0.0000 </r>
       <r>    7.6682    0.0000 </r>
       <r>    7.9215    0.0000 </r>
       <r>    7.9245    0.0000 </r>
       <r>    8.3930    0.0000 </r>
       <r>    8.3962    0.0000 </r>
       <r>    8.5908    0.0000 </r>
       <r>    8.8127    0.0000 </r>
       <r>    9.1207    0.0000 </r>
       <r>    9.1219    0.0000 </r>
       <r>    9.5936    0.0000 </r>
       <r>    9.5950    0.0000 </r>
       <r>    9.6502    0.0000 </r>
       <r>    9.8398    0.0000 </r>
       <r>    9.8407    0.0000 </r>
       <r>   10.2093    0.0000 </r>
       <r>   10.6655    0.0000 </r>
       <r>   10.6699    0.0000 </r>
       <r>   11.0127    0.0000 </r>
       <r>   11.2144    0.0000 </r>
       <r>   11.2154    0.0000 </r>
       <r>   11.2737    0.0000 </r>
       <r>   11.3987    0.0000 </r>
       <r>   11.4009    0.0000 </r>
       <r>   11.7099    0.0000 </r>
       <r>   11.7144    0.0000 </r>
       <r>   11.7904    0.0000 </r>
       <r>   11.7916    0.0000 </r>
       <r>   11.8877    0.0000 </r>
       <r>   12.1960    0.0000 </r>
      </set>
      <set comment="kpoint 6">
       <r>  -35.9034    1.0000 </r>
       <r>  -35.9032    1.0000 </r>
       <r>  -35.9021    1.0000 </r>
       <r>  -35.9018    1.0000 </r>
       <r>  -35.9004    1.0000 </r>
       <r>  -35.8991    1.0000 </r>
       <r>  -35.8986    1.0000 </r>
       <r>  -35.8973    1.0000 </r>
       <r>  -35.8962    1.0000 </r>
       <r>  -35.8958    1.0000 </r>
       <r>  -35.8950    1.0000 </r>
       <r>  -35.8944    1.0000 </r>
       <r>  -35.8869    1.0000 </r>
       <r>  -35.8863    1.0000 </r>
       <r>  -35.8862    1.0000 </r>
       <r>  -35.8859    1.0000 </r>
       <r>  -35.8856    1.0000 </r>
       <r>  -35.8852    1.0000 </r>
       <r>  -35.8850    1.0000 </r>
       <r>  -35.8844    1.0000 </r>
       <r>  -35.8758    1.0000 </r>
       <r>  -35.8756    1.0000 </r>
       <r>  -35.8753    1.0000 </r>
[...]
       <r>   10.9211    0.0000 </r>
       <r>   11.2228    0.0000 </r>
       <r>   11.2259    0.0000 </r>
       <r>   11.4180    0.0000 </r>
       <r>   11.4511    0.0000 </r>
       <r>   11.4541    0.0000 </r>
       <r>   11.5341    0.0000 </r>
       <r>   11.5637    0.0000 </r>
       <r>   11.5669    0.0000 </r>
       <r>   11.9858    0.0000 </r>
       <r>   11.9899    0.0000 </r>
       <r>   12.0326    0.0000 </r>
       <r>   12.0436    0.0000 </r>
       <r>   12.0452    0.0000 </r>
       <r>   12.0457    0.0000 </r>
       <r>   12.1400    0.0000 </r>
       <r>   12.3592    0.0000 </r>
       <r>   12.3613    0.0000 </r>
      </set>
     </set>
    </set>
   </array>
  </eigenvalues>
  <separator name="orbital magnetization" >
   <v name="MAGDIPOLOUT">      0.00000000      0.00000000      0.00000000</v>
  </separator>
  <dos>
   <i name="efermi">      5.98185312 </i>
   <total>
    <array>
     <dimension dim="1">gridpoints</dimension>
     <dimension dim="2">spin</dimension>
     <field>energy</field>
     <field>total</field>
     <field>integrated</field>
     <set>
      <set comment="spin 1">
       <r>   -38.3469     0.0000     0.0000 </r>
       <r>   -38.1679     0.0000     0.0000 </r>
       <r>   -37.9889     0.0000     0.0000 </r>
       <r>   -37.8100     0.0000     0.0000 </r>
       <r>   -37.6310     0.0000     0.0000 </r>
       <r>   -37.4520     0.0000     0.0000 </r>
       <r>   -37.2730     0.0000     0.0000 </r>
       <r>   -37.0941     0.0000     0.0000 </r>
       <r>   -36.9151     0.0000     0.0000 </r>
       <r>   -36.7361     0.0000     0.0000 </r>
       <r>   -36.5571    -0.0052    -0.0009 </r>
       <r>   -36.3782    -0.6572    -0.1186 </r>
       <r>   -36.1992   -12.3073    -2.3213 </r>
       <r>   -36.0202    31.7284     3.3574 </r>
       <r>   -35.8412   359.0879    67.6259 </r>
       <r>   -35.6622   241.7191   110.8880 </r>
       <r>   -35.4833   -10.1792   109.0662 </r>
       <r>   -35.3043    -5.8046   108.0273 </r>
       <r>   -35.1253    -0.1517   108.0001 </r>
       <r>   -34.9463    -0.0007   108.0000 </r>
       <r>   -34.7674     0.0000   108.0000 </r>
       <r>   -34.5884     0.0000   108.0000 </r>
       <r>   -34.4094     0.0000   108.0000 </r>
       <r>   -34.2304     0.0000   108.0000 </r>
       <r>   -34.0515     0.0000   108.0000 </r>
       <r>   -33.8725     0.0000   108.0000 </r>
       <r>   -33.6935     0.0000   108.0000 </r>
       <r>   -33.5145     0.0000   108.0000 </r>
       <r>   -33.3355     0.0000   108.0000 </r>
       <r>   -33.1566     0.0000   108.0000 </r>
       <r>   -32.9776     0.0000   108.0000 </r>
       <r>   -32.7986     0.0000   108.0000 </r>
       <r>   -32.6196     0.0000   108.0000 </r>
       <r>   -32.4407     0.0000   108.0000 </r>
       <r>   -32.2617     0.0000   108.0000 </r>
       <r>   -32.0827     0.0000   108.0000 </r>
       <r>   -31.9037     0.0000   108.0000 </r>
       <r>   -31.7248     0.0000   108.0000 </r>
       <r>   -31.5458     0.0000   108.0000 </r>
       <r>   -31.3668     0.0000   108.0000 </r>
       <r>   -31.1878     0.0000   108.0000 </r>
       <r>   -31.0088     0.0000   108.0000 </r>
       <r>   -30.8299     0.0000   108.0000 </r>
       <r>   -30.6509     0.0000   108.0000 </r>
       <r>   -30.4719     0.0000   108.0000 </r>
       <r>   -30.2929     0.0000   108.0000 </r>
       <r>   -30.1140     0.0000   108.0000 </r>
       <r>   -29.9350     0.0000   108.0000 </r>
       <r>   -29.7560     0.0000   108.0000 </r>
       <r>   -29.5770     0.0000   108.0000 </r>
       <r>   -29.3981     0.0000   108.0000 </r>
       <r>   -29.2191     0.0000   108.0000 </r>
       <r>   -29.0401     0.0000   108.0000 </r>
       <r>   -28.8611     0.0000   108.0000 </r>
       <r>   -28.6821     0.0000   108.0000 </r>
       <r>   -28.5032     0.0000   108.0000 </r>
       <r>   -28.3242     0.0000   108.0000 </r>
       <r>   -28.1452     0.0000   108.0000 </r>
       <r>   -27.9662     0.0000   108.0000 </r>
       <r>   -27.7873     0.0000   108.0000 </r>
       <r>   -27.6083     0.0000   108.0000 </r>
       <r>   -27.4293     0.0000   108.0000 </r>
       <r>   -27.2503     0.0000   108.0000 </r>
       <r>   -27.0714     0.0000   108.0000 </r>
       <r>   -26.8924     0.0000   108.0000 </r>
       <r>   -26.7134     0.0000   108.0000 </r>
       <r>   -26.5344     0.0000   108.0000 </r>
       <r>   -26.3554     0.0000   108.0000 </r>
       <r>   -26.1765     0.0000   108.0000 </r>
       <r>   -25.9975     0.0000   108.0000 </r>
       <r>   -25.8185     0.0000   108.0000 </r>
       <r>   -25.6395     0.0000   108.0000 </r>
       <r>   -25.4606     0.0000   108.0000 </r>
       <r>   -25.2816     0.0000   108.0000 </r>
       <r>   -25.1026     0.0000   108.0000 </r>
       <r>   -24.9236     0.0000   108.0000 </r>
       <r>   -24.7447     0.0000   108.0000 </r>
       <r>   -24.5657     0.0000   108.0000 </r>
       <r>   -24.3867     0.0000   108.0000 </r>
       <r>   -24.2077     0.0000   108.0000 </r>
       <r>   -24.0287     0.0000   108.0000 </r>
       <r>   -23.8498     0.0000   108.0000 </r>
       <r>   -23.6708     0.0000   108.0000 </r>
       <r>   -23.4918     0.0000   108.0000 </r>
       <r>   -23.3128     0.0000   108.0000 </r>
       <r>   -23.1339     0.0000   108.0000 </r>
       <r>   -22.9549     0.0000   108.0000 </r>
       <r>   -22.7759     0.0000   108.0000 </r>
       <r>   -22.5969     0.0000   108.0000 </r>
       <r>   -22.4180     0.0000   108.0000 </r>
       <r>   -22.2390     0.0000   108.0000 </r>
       <r>   -22.0600     0.0000   108.0000 </r>
       <r>   -21.8810     0.0000   108.0000 </r>
       <r>   -21.7020     0.0000   108.0000 </r>
       <r>   -21.5231     0.0000   108.0000 </r>
       <r>   -21.3441     0.0000   108.0000 </r>
       <r>   -21.1651     0.0000   108.0000 </r>
       <r>   -20.9861     0.0000   108.0000 </r>
       <r>   -20.8072     0.0000   108.0000 </r>
       <r>   -20.6282     0.0000   108.0000 </r>
       <r>   -20.4492     0.0000   108.0000 </r>
       <r>   -20.2702     0.0000   108.0000 </r>
       <r>   -20.0912     0.0000   108.0000 </r>
       <r>   -19.9123     0.0000   108.0000 </r>
       <r>   -19.7333     0.0000   108.0000 </r>
       <r>   -19.5543     0.0000   108.0000 </r>
       <r>   -19.3753     0.0000   108.0000 </r>
       <r>   -19.1964     0.0000   108.0000 </r>
       <r>   -19.0174     0.0000   108.0000 </r>
       <r>   -18.8384     0.0000   108.0000 </r>
       <r>   -18.6594     0.0000   108.0000 </r>
       <r>   -18.4805     0.0000   108.0000 </r>
       <r>   -18.3015     0.0000   108.0000 </r>
       <r>   -18.1225     0.0000   108.0000 </r>
       <r>   -17.9435     0.0000   108.0000 </r>
       <r>   -17.7645     0.0000   108.0000 </r>
       <r>   -17.5856     0.0000   108.0000 </r>
       <r>   -17.4066     0.0000   108.0000 </r>
       <r>   -17.2276     0.0000   108.0000 </r>
       <r>   -17.0486     0.0000   108.0000 </r>
       <r>   -16.8697     0.0000   108.0000 </r>
       <r>   -16.6907     0.0000   108.0000 </r>
       <r>   -16.5117     0.0000   108.0000 </r>
       <r>   -16.3327     0.0000   108.0000 </r>
       <r>   -16.1538     0.0000   108.0000 </r>
       <r>   -15.9748     0.0000   108.0000 </r>
       <r>   -15.7958     0.0000   108.0000 </r>
       <r>   -15.6168     0.0000   108.0000 </r>
       <r>   -15.4378     0.0000   108.0000 </r>
       <r>   -15.2589     0.0000   108.0000 </r>
       <r>   -15.0799     0.0000   108.0000 </r>
       <r>   -14.9009     0.0000   108.0000 </r>
       <r>   -14.7219     0.0000   108.0000 </r>
       <r>   -14.5430     0.0000   108.0000 </r>
       <r>   -14.3640     0.0000   108.0000 </r>
       <r>   -14.1850     0.0000   108.0000 </r>
       <r>   -14.0060     0.0000   108.0000 </r>
       <r>   -13.8271     0.0000   108.0000 </r>
       <r>   -13.6481     0.0000   108.0000 </r>
       <r>   -13.4691     0.0000   108.0000 </r>
       <r>   -13.2901     0.0000   108.0000 </r>
       <r>   -13.1111     0.0000   108.0000 </r>
       <r>   -12.9322     0.0000   108.0000 </r>
       <r>   -12.7532     0.0000   108.0000 </r>
       <r>   -12.5742     0.0000   108.0000 </r>
       <r>   -12.3952     0.0000   108.0000 </r>
       <r>   -12.2163     0.0000   108.0000 </r>
       <r>   -12.0373     0.0000   108.0000 </r>
       <r>   -11.8583     0.0000   108.0000 </r>
       <r>   -11.6793     0.0000   108.0000 </r>
       <r>   -11.5004     0.0000   108.0000 </r>
       <r>   -11.3214     0.0000   108.0000 </r>
       <r>   -11.1424     0.0000   108.0000 </r>
       <r>   -10.9634     0.0000   108.0000 </r>
       <r>   -10.7844     0.0000   108.0000 </r>
       <r>   -10.6055     0.0000   108.0000 </r>
       <r>   -10.4265     0.0000   108.0000 </r>
       <r>   -10.2475     0.0000   108.0000 </r>
       <r>   -10.0685     0.0000   108.0000 </r>
       <r>    -9.8896     0.0000   108.0000 </r>
       <r>    -9.7106     0.0000   108.0000 </r>
       <r>    -9.5316     0.0000   108.0000 </r>
       <r>    -9.3526     0.0000   108.0000 </r>
       <r>    -9.1737     0.0000   108.0000 </r>
       <r>    -8.9947     0.0000   108.0000 </r>
       <r>    -8.8157     0.0000   108.0000 </r>
       <r>    -8.6367     0.0000   108.0000 </r>
       <r>    -8.4577     0.0000   108.0000 </r>
       <r>    -8.2788     0.0000   108.0000 </r>
       <r>    -8.0998     0.0000   108.0000 </r>
       <r>    -7.9208     0.0000   108.0000 </r>
       <r>    -7.7418     0.0000   108.0000 </r>
       <r>    -7.5629     0.0000   108.0000 </r>
       <r>    -7.3839     0.0000   108.0000 </r>
       <r>    -7.2049     0.0000   108.0000 </r>
       <r>    -7.0259     0.0000   108.0000 </r>
       <r>    -6.8470    -0.0017   107.9997 </r>
       <r>    -6.6680    -0.0289   107.9945 </r>
       <r>    -6.4890     0.0087   107.9961 </r>
       <r>    -6.3100     0.8667   108.1512 </r>
       <r>    -6.1310     2.2714   108.5577 </r>
       <r>    -5.9521     3.2789   109.1446 </r>
       <r>    -5.7731     3.9739   109.8558 </r>
       <r>    -5.5941     4.8020   110.7153 </r>
       <r>    -5.4151     5.2700   111.6585 </r>
       <r>    -5.2362     6.5623   112.8330 </r>
       <r>    -5.0572     7.1206   114.1074 </r>
       <r>    -4.8782     8.0151   115.5420 </r>
       <r>    -4.6992     8.1639   117.0031 </r>
       <r>    -4.5202     7.4261   118.3322 </r>
       <r>    -4.3413     8.2150   119.8025 </r>
       <r>    -4.1623     8.3828   121.3028 </r>
       <r>    -3.9833     7.3174   122.6125 </r>
       <r>    -3.8043     8.1680   124.0744 </r>
       <r>    -3.6254     8.7373   125.6381 </r>
       <r>    -3.4464     7.6817   127.0130 </r>
       <r>    -3.2674     7.9141   128.4294 </r>
       <r>    -3.0884     8.4165   129.9358 </r>
       <r>    -2.9095     8.9252   131.5332 </r>
       <r>    -2.7305     8.3377   133.0255 </r>
       <r>    -2.5515     7.9066   134.4406 </r>
       <r>    -2.3725     9.8396   136.2016 </r>
       <r>    -2.1935     9.7398   137.9448 </r>
       <r>    -2.0146     7.0327   139.2035 </r>
       <r>    -1.8356     6.5076   140.3682 </r>
       <r>    -1.6566     7.9970   141.7995 </r>
       <r>    -1.4776     7.8387   143.2025 </r>
       <r>    -1.2987     6.3587   144.3405 </r>
       <r>    -1.1197     7.9521   145.7638 </r>
       <r>    -0.9407     9.9966   147.5529 </r>
       <r>    -0.7617    10.3426   149.4040 </r>
       <r>    -0.5828    10.7415   151.3265 </r>
       <r>    -0.4038    11.4476   153.3753 </r>
       <r>    -0.2248    11.1656   155.3737 </r>
       <r>    -0.0458    11.0279   157.3475 </r>
       <r>     0.1332    10.3456   159.1991 </r>
       <r>     0.3121    11.0506   161.1769 </r>
       <r>     0.4911    10.9747   163.1411 </r>
       <r>     0.6701    12.2541   165.3343 </r>
       <r>     0.8491    11.8503   167.4553 </r>
       <r>     1.0280    12.8458   169.7544 </r>
       <r>     1.2070    13.8679   172.2364 </r>
       <r>     1.3860    12.2609   174.4308 </r>
       <r>     1.5650    13.6364   176.8714 </r>
       <r>     1.7439    16.9213   179.8999 </r>
       <r>     1.9229    13.2665   182.2743 </r>
       <r>     2.1019    12.8236   184.5695 </r>
       <r>     2.2809    18.0944   187.8079 </r>
       <r>     2.4599    16.1933   190.7062 </r>
       <r>     2.6388    17.5756   193.8518 </r>
       <r>     2.8178    17.1303   196.9177 </r>
       <r>     2.9968    17.3635   200.0254 </r>
       <r>     3.1758    18.8276   203.3951 </r>
       <r>     3.3547    19.1139   206.8161 </r>
       <r>     3.5337    19.1982   210.2521 </r>
       <r>     3.7127    19.3500   213.7153 </r>
       <r>     3.8917    22.1083   217.6722 </r>
       <r>     4.0706    22.4763   221.6949 </r>
       <r>     4.2496    22.2958   225.6854 </r>
       <r>     4.4286    17.8228   228.8752 </r>
       <r>     4.6076    14.7386   231.5131 </r>
       <r>     4.7866    17.2766   234.6052 </r>
       <r>     4.9655    16.2822   237.5193 </r>
       <r>     5.1445    14.0468   240.0334 </r>
       <r>     5.3235    16.6446   243.0124 </r>
       <r>     5.5025    14.3210   245.5755 </r>
       <r>     5.6814    12.3453   247.7850 </r>
       <r>     5.8604    13.5648   250.2128 </r>
       <r>     6.0394    14.2432   252.7620 </r>
       <r>     6.2184    10.9253   254.7174 </r>
       <r>     6.3973    10.8390   256.6573 </r>
       <r>     6.5763     9.6386   258.3824 </r>
       <r>     6.7553     6.2924   259.5086 </r>
       <r>     6.9343     6.0204   260.5861 </r>
       <r>     7.1133     5.2907   261.5331 </r>
       <r>     7.2922     3.9317   262.2367 </r>
       <r>     7.4712     5.3390   263.1923 </r>
       <r>     7.6502     5.6096   264.1963 </r>
       <r>     7.8292     5.1789   265.1232 </r>
       <r>     8.0081     5.9063   266.1803 </r>
       <r>     8.1871     6.4735   267.3389 </r>
       <r>     8.3661     6.8877   268.5716 </r>
       <r>     8.5451     6.8477   269.7972 </r>
       <r>     8.7240     7.4955   271.1387 </r>
       <r>     8.9030     7.9684   272.5649 </r>
       <r>     9.0820     8.6045   274.1049 </r>
       <r>     9.2610     7.3103   275.4133 </r>
       <r>     9.4400     6.8136   276.6327 </r>
       <r>     9.6189     8.2286   278.1055 </r>
       <r>     9.7979     9.0607   279.7271 </r>
       <r>     9.9769     8.0529   281.1684 </r>
       <r>    10.1559     8.6121   282.7098 </r>
       <r>    10.3348     8.2373   284.1840 </r>
       <r>    10.5138     9.1749   285.8261 </r>
       <r>    10.6928    10.5752   287.7189 </r>
       <r>    10.8718     9.2885   289.3813 </r>
       <r>    11.0507    13.3432   291.7694 </r>
       <r>    11.2297    14.4319   294.3524 </r>
       <r>    11.4087    15.1219   297.0589 </r>
       <r>    11.5877    17.7245   300.2312 </r>
       <r>    11.7667    20.5098   303.9019 </r>
       <r>    11.9456    19.8044   307.4465 </r>
       <r>    12.1246    23.6068   311.6715 </r>
       <r>    12.3036    20.5176   315.3437 </r>
       <r>    12.4826    15.6814   318.1503 </r>
       <r>    12.6615     8.9933   319.7599 </r>
       <r>    12.8405     1.5584   320.0388 </r>
       <r>    13.0195    -0.1824   320.0062 </r>
       <r>    13.1985    -0.0293   320.0009 </r>
       <r>    13.3775    -0.0050   320.0001 </r>
       <r>    13.5564    -0.0003   320.0000 </r>
       <r>    13.7354     0.0000   320.0000 </r>
       <r>    13.9144     0.0000   320.0000 </r>
       <r>    14.0934     0.0000   320.0000 </r>
       <r>    14.2723     0.0000   320.0000 </r>
       <r>    14.4513     0.0000   320.0000 </r>
       <r>    14.6303     0.0000   320.0000 </r>
       <r>    14.8093     0.0000   320.0000 </r>
       <r>    14.9882     0.0000   320.0000 </r>
       <r>    15.1672     0.0000   320.0000 </r>
       <r>    15.3462     0.0000   320.0000 </r>
      </set>
     </set>
    </array>
   </total>
  </dos>
 </calculation>
 <structure name="finalpos" >
  <crystal>
   <varray name="basis" >
    <v>       9.22550730       0.00000000       0.00000000 </v>
    <v>      -4.61275365       7.98952369       0.00000000 </v>
    <v>       0.00000000       0.00000000       7.05401601 </v>
   </varray>
   <i name="volume">    519.93324420 </i>
   <varray name="rec_basis" >
    <v>       0.10839512       0.06258195       0.00000000 </v>
    <v>       0.00000000       0.12516391       0.00000000 </v>
    <v>       0.00000000       0.00000000       0.14176322 </v>
   </varray>
  </crystal>
  <varray name="positions" >
   <v>       0.00000000       0.00000000       0.00000000 </v>
   <v>       0.33333333       0.00000000       0.00000000 </v>
   <v>       0.66666667       0.00000000       0.00000000 </v>
   <v>       0.00000000       0.33333333       0.00000000 </v>
   <v>       0.33333333       0.33333333       0.00000000 </v>
   <v>       0.66666667       0.33333333       0.00000000 </v>
   <v>       0.00000000       0.66666667       0.00000000 </v>
   <v>       0.33333333       0.66666667       0.00000000 </v>
   <v>       0.66666667       0.66666667       0.00000000 </v>
   <v>       0.00000000       0.00000000       0.50000000 </v>
   <v>       0.33333333       0.00000000       0.50000000 </v>
   <v>       0.66666667       0.00000000       0.50000000 </v>
   <v>       0.00000000       0.33333333       0.50000000 </v>
   <v>       0.33333333       0.33333333       0.50000000 </v>
   <v>       0.66666667       0.33333333       0.50000000 </v>
   <v>       0.00000000       0.66666667       0.50000000 </v>
   <v>       0.33333333       0.66666667       0.50000000 </v>
   <v>       0.66666667       0.66666667       0.50000000 </v>
   <v>       0.11197219       0.22222222       0.25086108 </v>
   <v>       0.44444444       0.22222222       0.25000000 </v>
   <v>       0.77777778       0.22222222       0.25000000 </v>
   <v>       0.11111111       0.55555556       0.25000000 </v>
   <v>       0.44444444       0.55555556       0.25000000 </v>
   <v>       0.77777778       0.55555556       0.25000000 </v>
   <v>       0.11111111       0.88888889       0.25000000 </v>
   <v>       0.44444444       0.88888889       0.25000000 </v>
   <v>       0.77777778       0.88888889       0.25000000 </v>
   <v>       0.11111111       0.22222222       0.75000000 </v>
   <v>       0.44444444       0.22222222       0.75000000 </v>
   <v>       0.77777778       0.22222222       0.75000000 </v>
   <v>       0.11111111       0.55555556       0.75000000 </v>
   <v>       0.44444444       0.55555556       0.75000000 </v>
   <v>       0.77777778       0.55555556       0.75000000 </v>
   <v>       0.11111111       0.88888889       0.75000000 </v>
   <v>       0.44444444       0.88888889       0.75000000 </v>
   <v>       0.77777778       0.88888889       0.75000000 </v>
   <v>       0.22222222       0.11111111       0.25000000 </v>
   <v>       0.55555556       0.11111111       0.25000000 </v>
   <v>       0.88888889       0.11111111       0.25000000 </v>
   <v>       0.22222222       0.44444444       0.25000000 </v>
   <v>       0.55555556       0.44444444       0.25000000 </v>
   <v>       0.88888889       0.44444444       0.25000000 </v>
   <v>       0.22222222       0.77777778       0.25000000 </v>
   <v>       0.55555556       0.77777778       0.25000000 </v>
   <v>       0.88888889       0.77777778       0.25000000 </v>
   <v>       0.22222222       0.11111111       0.75000000 </v>
   <v>       0.55555556       0.11111111       0.75000000 </v>
   <v>       0.88888889       0.11111111       0.75000000 </v>
   <v>       0.22222222       0.44444444       0.75000000 </v>
   <v>       0.55555556       0.44444444       0.75000000 </v>
   <v>       0.88888889       0.44444444       0.75000000 </v>
   <v>       0.22222222       0.77777778       0.75000000 </v>
   <v>       0.55555556       0.77777778       0.75000000 </v>
   <v>       0.88888889       0.77777778       0.75000000 </v>
  </varray>
 </structure>
</modeling>
