<?xml version="1.0" encoding="ISO-8859-1"?>
<modeling>
 <generator>
  <i name="program" type="string">vasp </i>
  <i name="version" type="string">5.2.12  </i>
  <i name="subversion" type="string">11Nov11 complex                                                      parallel </i>
  <i name="platform" type="string">LinuxIFC </i>
  <i name="date" type="string">2012 02 01 </i>
  <i name="time" type="string">19:40:43 </i>
 </generator>
 <incar>
  <i type="string" name="PREC">accurate</i>
  <i type="int" name="IALGO">    38</i>
  <i type="logical" name="ADDGRID"> T  </i>
  <i type="int" name="NELMIN">     5</i>
  <i type="int" name="IBRION">    -1</i>
  <i name="EDIFF">      0.00000001</i>
  <i name="ENCUT">    500.00000000</i>
  <i type="logical" name="LREAL"> F  </i>
  <i type="int" name="ISMEAR">     1</i>
  <i name="SIGMA">      0.20000000</i>
  <i type="logical" name="LWAVE"> F  </i>
  <i type="logical" name="LCHARG"> F  </i>
 </incar>
 <kpoints>
  <generation param="Monkhorst-Pack">
   <v type="int" name="divisions">       6        6        9 </v>
   <v name="usershift">      0.50000000       0.50000000       0.00000000 </v>
   <v name="genvec1">      0.16666667       0.00000000       0.00000000 </v>
   <v name="genvec2">      0.00000000       0.16666667       0.00000000 </v>
   <v name="genvec3">      0.00000000       0.00000000       0.11111111 </v>
   <v name="shift">      0.00000000       0.00000000       0.00000000 </v>
  </generation>
  <varray name="kpointlist" >
   <v>       0.00000000       0.00000000       0.00000000 </v>
   <v>       0.16666667       0.00000000       0.00000000 </v>
   <v>       0.33333333       0.00000000       0.00000000 </v>
   <v>       0.50000000       0.00000000       0.00000000 </v>
   <v>       0.00000000       0.16666667       0.00000000 </v>
   <v>       0.16666667       0.16666667       0.00000000 </v>
   <v>       0.33333333       0.16666667       0.00000000 </v>
   <v>       0.50000000       0.16666667       0.00000000 </v>
   <v>      -0.33333333       0.16666667       0.00000000 </v>
   <v>       0.00000000       0.33333333       0.00000000 </v>
   <v>       0.16666667       0.33333333       0.00000000 </v>
   <v>       0.33333333       0.33333333       0.00000000 </v>
   <v>       0.00000000       0.50000000       0.00000000 </v>
   <v>       0.00000000       0.00000000       0.11111111 </v>
   <v>       0.16666667       0.00000000       0.11111111 </v>
   <v>       0.33333333       0.00000000       0.11111111 </v>
   <v>       0.50000000       0.00000000       0.11111111 </v>
   <v>      -0.33333333       0.00000000       0.11111111 </v>
   <v>      -0.16666667       0.00000000       0.11111111 </v>
   <v>       0.00000000       0.16666667       0.11111111 </v>
   <v>       0.16666667       0.16666667       0.11111111 </v>
   <v>       0.33333333       0.16666667       0.11111111 </v>
   <v>       0.50000000       0.16666667       0.11111111 </v>
   <v>      -0.33333333       0.16666667       0.11111111 </v>
   <v>       0.00000000       0.33333333       0.11111111 </v>
   <v>       0.16666667       0.33333333       0.11111111 </v>
   <v>       0.33333333       0.33333333       0.11111111 </v>
   <v>      -0.16666667       0.33333333       0.11111111 </v>
   <v>       0.00000000       0.50000000       0.11111111 </v>
   <v>      -0.33333333       0.50000000       0.11111111 </v>
   <v>      -0.16666667       0.50000000       0.11111111 </v>
   <v>       0.50000000      -0.33333333       0.11111111 </v>
   <v>      -0.33333333      -0.33333333       0.11111111 </v>
   <v>       0.33333333      -0.16666667       0.11111111 </v>
   <v>       0.00000000       0.00000000       0.22222222 </v>
   <v>       0.16666667       0.00000000       0.22222222 </v>
   <v>       0.33333333       0.00000000       0.22222222 </v>
   <v>       0.50000000       0.00000000       0.22222222 </v>
   <v>      -0.33333333       0.00000000       0.22222222 </v>
   <v>      -0.16666667       0.00000000       0.22222222 </v>
   <v>       0.00000000       0.16666667       0.22222222 </v>
   <v>       0.16666667       0.16666667       0.22222222 </v>
   <v>       0.33333333       0.16666667       0.22222222 </v>
   <v>       0.50000000       0.16666667       0.22222222 </v>
   <v>      -0.33333333       0.16666667       0.22222222 </v>
   <v>       0.00000000       0.33333333       0.22222222 </v>
   <v>       0.16666667       0.33333333       0.22222222 </v>
   <v>       0.33333333       0.33333333       0.22222222 </v>
   <v>      -0.16666667       0.33333333       0.22222222 </v>
   <v>       0.00000000       0.50000000       0.22222222 </v>
   <v>      -0.33333333       0.50000000       0.22222222 </v>
   <v>      -0.16666667       0.50000000       0.22222222 </v>
   <v>       0.50000000      -0.33333333       0.22222222 </v>
   <v>      -0.33333333      -0.33333333       0.22222222 </v>
   <v>       0.33333333      -0.16666667       0.22222222 </v>
   <v>       0.00000000       0.00000000       0.33333333 </v>
   <v>       0.16666667       0.00000000       0.33333333 </v>
   <v>       0.33333333       0.00000000       0.33333333 </v>
   <v>       0.50000000       0.00000000       0.33333333 </v>
   <v>      -0.33333333       0.00000000       0.33333333 </v>
   <v>      -0.16666667       0.00000000       0.33333333 </v>
   <v>       0.00000000       0.16666667       0.33333333 </v>
   <v>       0.16666667       0.16666667       0.33333333 </v>
   <v>       0.33333333       0.16666667       0.33333333 </v>
   <v>       0.50000000       0.16666667       0.33333333 </v>
   <v>      -0.33333333       0.16666667       0.33333333 </v>
   <v>       0.00000000       0.33333333       0.33333333 </v>
   <v>       0.16666667       0.33333333       0.33333333 </v>
   <v>       0.33333333       0.33333333       0.33333333 </v>
   <v>      -0.16666667       0.33333333       0.33333333 </v>
   <v>       0.00000000       0.50000000       0.33333333 </v>
   <v>      -0.33333333       0.50000000       0.33333333 </v>
   <v>      -0.16666667       0.50000000       0.33333333 </v>
   <v>       0.50000000      -0.33333333       0.33333333 </v>
   <v>      -0.33333333      -0.33333333       0.33333333 </v>
   <v>       0.33333333      -0.16666667       0.33333333 </v>
   <v>       0.00000000       0.00000000       0.44444444 </v>
   <v>       0.16666667       0.00000000       0.44444444 </v>
   <v>       0.33333333       0.00000000       0.44444444 </v>
   <v>       0.50000000       0.00000000       0.44444444 </v>
   <v>      -0.33333333       0.00000000       0.44444444 </v>
   <v>      -0.16666667       0.00000000       0.44444444 </v>
   <v>       0.00000000       0.16666667       0.44444444 </v>
   <v>       0.16666667       0.16666667       0.44444444 </v>
   <v>       0.33333333       0.16666667       0.44444444 </v>
   <v>       0.50000000       0.16666667       0.44444444 </v>
   <v>      -0.33333333       0.16666667       0.44444444 </v>
   <v>       0.00000000       0.33333333       0.44444444 </v>
   <v>       0.16666667       0.33333333       0.44444444 </v>
   <v>       0.33333333       0.33333333       0.44444444 </v>
   <v>      -0.16666667       0.33333333       0.44444444 </v>
   <v>       0.00000000       0.50000000       0.44444444 </v>
   <v>      -0.33333333       0.50000000       0.44444444 </v>
   <v>      -0.16666667       0.50000000       0.44444444 </v>
   <v>       0.50000000      -0.33333333       0.44444444 </v>
   <v>      -0.33333333      -0.33333333       0.44444444 </v>
   <v>       0.33333333      -0.16666667       0.44444444 </v>
  </varray>
  <varray name="weights" >
   <v>       0.00308642 </v>
   <v>       0.01234568 </v>
   <v>       0.01234568 </v>
   <v>       0.00617284 </v>
   <v>       0.00617284 </v>
   <v>       0.01234568 </v>
   <v>       0.01234568 </v>
   <v>       0.01234568 </v>
   <v>       0.00617284 </v>
   <v>       0.00617284 </v>
   <v>       0.01234568 </v>
   <v>       0.00617284 </v>
   <v>       0.00308642 </v>
   <v>       0.00617284 </v>
   <v>       0.01234568 </v>
   <v>       0.01234568 </v>
   <v>       0.01234568 </v>
   <v>       0.01234568 </v>
   <v>       0.01234568 </v>
   <v>       0.01234568 </v>
   <v>       0.01234568 </v>
   <v>       0.01234568 </v>
   <v>       0.01234568 </v>
   <v>       0.00617284 </v>
   <v>       0.01234568 </v>
   <v>       0.01234568 </v>
   <v>       0.00617284 </v>
   <v>       0.01234568 </v>
   <v>       0.00617284 </v>
   <v>       0.01234568 </v>
   <v>       0.01234568 </v>
   <v>       0.01234568 </v>
   <v>       0.00617284 </v>
   <v>       0.00617284 </v>
   <v>       0.00617284 </v>
   <v>       0.01234568 </v>
   <v>       0.01234568 </v>
   <v>       0.01234568 </v>
   <v>       0.01234568 </v>
   <v>       0.01234568 </v>
   <v>       0.01234568 </v>
   <v>       0.01234568 </v>
   <v>       0.01234568 </v>
   <v>       0.01234568 </v>
   <v>       0.00617284 </v>
   <v>       0.01234568 </v>
   <v>       0.01234568 </v>
   <v>       0.00617284 </v>
   <v>       0.01234568 </v>
   <v>       0.00617284 </v>
   <v>       0.01234568 </v>
   <v>       0.01234568 </v>
   <v>       0.01234568 </v>
   <v>       0.00617284 </v>
   <v>       0.00617284 </v>
   <v>       0.00617284 </v>
   <v>       0.01234568 </v>
   <v>       0.01234568 </v>
   <v>       0.01234568 </v>
   <v>       0.01234568 </v>
   <v>       0.01234568 </v>
   <v>       0.01234568 </v>
   <v>       0.01234568 </v>
   <v>       0.01234568 </v>
   <v>       0.01234568 </v>
   <v>       0.00617284 </v>
   <v>       0.01234568 </v>
   <v>       0.01234568 </v>
   <v>       0.00617284 </v>
   <v>       0.01234568 </v>
   <v>       0.00617284 </v>
   <v>       0.01234568 </v>
   <v>       0.01234568 </v>
   <v>       0.01234568 </v>
   <v>       0.00617284 </v>
   <v>       0.00617284 </v>
   <v>       0.00617284 </v>
   <v>       0.01234568 </v>
   <v>       0.01234568 </v>
   <v>       0.01234568 </v>
   <v>       0.01234568 </v>
   <v>       0.01234568 </v>
   <v>       0.01234568 </v>
   <v>       0.01234568 </v>
   <v>       0.01234568 </v>
   <v>       0.01234568 </v>
   <v>       0.00617284 </v>
   <v>       0.01234568 </v>
   <v>       0.01234568 </v>
   <v>       0.00617284 </v>
   <v>       0.01234568 </v>
   <v>       0.00617284 </v>
   <v>       0.01234568 </v>
   <v>       0.01234568 </v>
   <v>       0.01234568 </v>
   <v>       0.00617284 </v>
   <v>       0.00617284 </v>
  </varray>
 </kpoints>
 <parameters>
  <separator name="general" >
   <i type="string" name="SYSTEM">unknown system</i>
   <i type="logical" name="LCOMPAT"> F  </i>
  </separator>
  <separator name="electronic" >
   <i type="string" name="PREC">accura</i>
   <i name="ENMAX">    500.00000000</i>
   <i name="ENAUG">    535.51400000</i>
   <i name="EDIFF">      0.00000001</i>
   <i type="int" name="IALGO">    38</i>
   <i type="int" name="IWAVPR">    10</i>
   <i type="int" name="NBANDS">   160</i>
   <i name="NELECT">    252.00000000</i>
   <i type="int" name="TURBO">     0</i>
   <i type="int" name="IRESTART">     0</i>
   <i type="int" name="NREBOOT">     0</i>
   <i type="int" name="NMIN">     0</i>
   <i name="EREF">      0.00000000</i>
   <separator name="electronic smearing" >
    <i type="int" name="ISMEAR">     1</i>
    <i name="SIGMA">      0.20000000</i>
    <i name="KSPACING">      0.50000000</i>
    <i type="logical" name="KGAMMA"> T  </i>
   </separator>
   <separator name="electronic projectors" >
    <i type="logical" name="LREAL"> F  </i>
    <v name="ROPT">      0.00000000      0.00000000</v>
    <i type="int" name="LMAXPAW">  -100</i>
    <i type="int" name="LMAXMIX">     2</i>
    <i type="logical" name="NLSPLINE"> F  </i>
   </separator>
   <separator name="electronic startup" >
    <i type="int" name="ISTART">     0</i>
    <i type="int" name="ICHARG">     2</i>
    <i type="int" name="INIWAV">     1</i>
   </separator>
   <separator name="electronic spin" >
    <i type="int" name="ISPIN">     1</i>
    <i type="logical" name="LNONCOLLINEAR"> F  </i>
    <v name="MAGMOM">      1.00000000      1.00000000      1.00000000      1.00000000      1.00000000      1.00000000      1.00000000      1.00000000      1.00000000      1.00000000      1.00000000      1.00000000      1.00000000      1.00000000      1.00000000      1.00000000      1.00000000      1.00000000      1.00000000      1.00000000
      1.00000000      1.00000000      1.00000000      1.00000000      1.00000000      1.00000000      1.00000000      1.00000000      1.00000000      1.00000000      1.00000000      1.00000000      1.00000000      1.00000000      1.00000000      1.00000000      1.00000000      1.00000000      1.00000000      1.00000000
      1.00000000      1.00000000      1.00000000      1.00000000      1.00000000      1.00000000      1.00000000      1.00000000      1.00000000      1.00000000      1.00000000      1.00000000      1.00000000      1.00000000</v>
    <i name="NUPDOWN">     -1.00000000</i>
    <i type="logical" name="LSORBIT"> F  </i>
    <v name="SAXIS">      0.00000000      0.00000000      1.00000000</v>
    <i type="logical" name="LSPIRAL"> F  </i>
    <v name="QSPIRAL">      0.00000000      0.00000000      0.00000000</v>
    <i type="logical" name="LZEROZ"> F  </i>
   </separator>
   <separator name="electronic exchange-correlation" >
    <i type="logical" name="LASPH"> F  </i>
    <i type="logical" name="LMETAGGA"> F  </i>
   </separator>
   <separator name="electronic convergence" >
    <i type="int" name="NELM">    60</i>
    <i type="int" name="NELMDL">    -5</i>
    <i type="int" name="NELMIN">     5</i>
    <i name="ENINI">    500.00000000</i>
    <separator name="electronic convergence detail" >
     <i type="logical" name="LDIAG"> T  </i>
     <i type="logical" name="LSUBROT"> T  </i>
     <i name="WEIMIN">      0.00000000</i>
     <i name="EBREAK">      0.00000000</i>
     <i name="DEPER">      0.30000000</i>
     <i type="int" name="NRMM">     4</i>
     <i name="TIME">      0.40000000</i>
    </separator>
   </separator>
   <separator name="electronic mixer" >
    <i name="AMIX">      0.40000000</i>
    <i name="BMIX">      1.00000000</i>
    <i name="AMIN">      0.10000000</i>
    <i name="AMIX_MAG">      1.60000000</i>
    <i name="BMIX_MAG">      1.00000000</i>
    <separator name="electronic mixer details" >
     <i type="int" name="IMIX">     4</i>
     <i type="int" name="MAXMIX">   -45</i>
     <i name="WC">    100.00000000</i>
     <i type="int" name="INIMIX">     1</i>
     <i type="int" name="MIXPRE">     1</i>
     <i type="int" name="MREMOVE">     5</i>
    </separator>
   </separator>
   <separator name="electronic dipolcorrection" >
    <i type="logical" name="LDIPOL"> F  </i>
    <i type="logical" name="LMONO"> F  </i>
    <i type="int" name="IDIPOL">     0</i>
    <i name="EPSILON">      1.00000000</i>
    <v name="DIPOL">   -100.00000000   -100.00000000   -100.00000000</v>
    <i name="EFIELD">      0.00000000</i>
   </separator>
  </separator>
  <separator name="grids" >
   <i type="int" name="NGX">    70</i>
   <i type="int" name="NGY">    70</i>
   <i type="int" name="NGZ">    54</i>
   <i type="int" name="NGXF">   140</i>
   <i type="int" name="NGYF">   140</i>
   <i type="int" name="NGZF">   108</i>
   <i type="logical" name="ADDGRID"> T  </i>
  </separator>
  <separator name="ionic" >
   <i type="int" name="NSW">     0</i>
   <i type="int" name="IBRION">    -1</i>
   <i type="int" name="ISIF">     2</i>
   <i name="PSTRESS">      0.00000000</i>
   <i name="EDIFFG">      0.00000010</i>
   <i type="int" name="NFREE">     0</i>
   <i name="POTIM">      0.50000000</i>
   <i name="SMASS">     -3.00000000</i>
   <i name="SCALEE">      1.00000000</i>
  </separator>
  <separator name="ionic md" >
   <i name="TEBEG">      0.00010000</i>
   <i name="TEEND">      0.00010000</i>
   <i type="int" name="NBLOCK">     1</i>
   <i type="int" name="KBLOCK">     1</i>
   <i type="int" name="NPACO">   256</i>
   <i name="APACO">     16.00000000</i>
  </separator>
  <separator name="symmetry" >
   <i type="int" name="ISYM">     2</i>
   <i name="SYMPREC">      0.00001000</i>
  </separator>
  <separator name="dos" >
   <i type="logical" name="LORBIT"> F  </i>
   <v name="RWIGS">     -1.00000000     -1.00000000</v>
   <i type="int" name="NEDOS">   301</i>
   <i name="EMIN">     10.00000000</i>
   <i name="EMAX">    -10.00000000</i>
   <i name="EFERMI">      0.00000000</i>
  </separator>
  <separator name="writing" >
   <i type="int" name="NWRITE">     2</i>
   <i type="logical" name="LWAVE"> F  </i>
   <i type="logical" name="LCHARG"> F  </i>
   <i type="logical" name="LPARD"> F  </i>
   <i type="logical" name="LVTOT"> F  </i>
   <i type="logical" name="LVHAR"> F  </i>
   <i type="logical" name="LELF"> F  </i>
   <i type="logical" name="LOPTICS"> F  </i>
   <v name="STM">      0.00000000      0.00000000      0.00000000      0.00000000      0.00000000      0.00000000      0.00000000</v>
  </separator>
  <separator name="performance" >
   <i type="int" name="NPAR">     8</i>
   <i type="int" name="NSIM">     4</i>
   <i type="int" name="NBLK">    -1</i>
   <i type="logical" name="LPLANE"> T  </i>
   <i type="logical" name="LSCALAPACK"> F  </i>
   <i type="logical" name="LSCAAWARE"> F  </i>
   <i type="logical" name="LSCALU"> F  </i>
   <i type="logical" name="LASYNC"> F  </i>
   <i type="logical" name="LORBITALREAL"> F  </i>
  </separator>
  <separator name="miscellaneous" >
   <i type="int" name="IDIOT">     3</i>
   <i type="logical" name="LMUSIC"> F  </i>
   <v name="POMASS">     24.30500000     10.81100000</v>
   <v name="DARWINR">      0.00000000      0.00000000</v>
   <v name="DARWINV">      1.00000000      1.00000000</v>
   <i type="logical" name="LCORR"> T  </i>
  </separator>
  <i type="logical" name="GGA_COMPAT"> T  </i>
  <i type="logical" name="LBERRY"> F  </i>
  <i type="int" name="ICORELEVEL">     0</i>
  <i type="logical" name="LDAU"> F  </i>
  <i type="int" name="I_CONSTRAINED_M">     0</i>
  <separator name="electronic exchange-correlation" >
   <i type="string" name="GGA">--</i>
   <i type="int" name="VOSKOWN">     0</i>
   <i type="logical" name="LHFCALC"> F  </i>
   <i type="string" name="PRECFOCK"></i>
   <i type="logical" name="LHFONE"> F  </i>
   <i type="logical" name="LRHFCALC"> F  </i>
   <i type="logical" name="LTHOMAS"> F  </i>
   <i type="logical" name="LMODELHF"> F  </i>
   <i name="ENCUT4O">     -1.00000000</i>
   <i type="int" name="EXXOEP">     0</i>
   <i type="int" name="FOURORBIT">     0</i>
   <i name="AEXX">      0.00000000</i>
   <i name="HFALPHA">      0.00000000</i>
   <i name="ALDAX">      1.00000000</i>
   <i name="AGGAX">      1.00000000</i>
   <i name="ALDAC">      1.00000000</i>
   <i name="AGGAC">      1.00000000</i>
   <i type="int" name="NKREDX">     1</i>
   <i type="int" name="NKREDY">     1</i>
   <i type="int" name="NKREDZ">     1</i>
   <i type="logical" name="SHIFTRED"> F  </i>
   <i type="logical" name="ODDONLY"> F  </i>
   <i type="logical" name="EVENONLY"> F  </i>
   <i type="int" name="LMAXFOCK">     0</i>
   <i type="int" name="NMAXFOCKAE">     0</i>
   <i type="logical" name="LFOCKAEDFT"> F  </i>
   <i name="HFSCREEN">      0.00000000</i>
   <i name="HFSCREENC">      0.00000000</i>
  </separator>
  <separator name="vdW DFT" >
   <i type="logical" name="LUSE_VDW"> F  </i>
   <i name="Zab_VDW">     -0.84910000</i>
   <i name="PARAM1">      0.12340000</i>
   <i name="PARAM2">      1.00000000</i>
   <i name="PARAM3">      0.00000000</i>
  </separator>
  <separator name="model GW" >
   <i type="int" name="MODEL_GW">     0</i>
   <i name="MODEL_EPS0">      5.77703605</i>
   <i name="MODEL_ALPHA">      1.00000000</i>
  </separator>
  <separator name="linear response parameters" >
   <i type="logical" name="LEPSILON"> F  </i>
   <i type="logical" name="LRPA"> F  </i>
   <i type="logical" name="LNABLA"> F  </i>
   <i type="logical" name="LVEL"> F  </i>
   <i type="int" name="KINTER">     0</i>
   <i name="CSHIFT">      0.10000000</i>
   <i name="OMEGAMAX">     -1.00000000</i>
  </separator>
  <separator name="orbital magnetization" >
   <i type="logical" name="NUCIND"> F  </i>
   <v name="MAGPOS">      0.00000000      0.00000000      0.00000000</v>
   <i type="logical" name="LNICSALL"> T  </i>
   <i type="logical" name="ORBITALMAG"> F  </i>
   <i type="logical" name="LMAGBLOCH"> F  </i>
   <i type="logical" name="LCHIMAG"> F  </i>
   <i type="logical" name="LGAUGE"> T  </i>
   <i type="int" name="MAGATOM">     0</i>
   <v name="MAGDIPOL">      0.00000000      0.00000000      0.00000000</v>
   <v name="AVECCONST">      0.00000000      0.00000000      0.00000000</v>
  </separator>
  <separator name="response functions" >
   <i type="logical" name="LADDER"> F  </i>
   <i type="logical" name="LHARTREE"> T  </i>
   <i type="int" name="IBSE">     0</i>
   <i type="logical" name="LTCTE"> F  </i>
   <i type="logical" name="LTETE"> F  </i>
   <i type="logical" name="LFXCEPS"> F  </i>
   <i type="logical" name="L2ORDER"> F  </i>
   <i type="logical" name="LUSEW"> F  </i>
   <i name="ENCUTGW">     -2.00000000</i>
   <i name="ENCUTGWSOFT">     -2.00000000</i>
   <i name="ENCUTLF">     -1.00000000</i>
   <i type="int" name="LMAXMP2">    -1</i>
   <i name="SCISSOR">      0.00000000</i>
   <i type="int" name="NOMEGA">     0</i>
   <i type="int" name="NOMEGAR">     0</i>
   <i type="int" name="NBANDSGW">    -1</i>
   <i type="int" name="NBANDSO">    -1</i>
   <i type="int" name="NBANDSV">    -1</i>
   <i name="OPTEMAX">      0.00000000</i>
   <i type="int" name="NELM">     1</i>
   <i type="int" name="DIM">     3</i>
   <i type="int" name="ANTIRES">     0</i>
   <i name="OMEGAMAX">    -30.00000000</i>
   <i name="OMEGATL">   -200.00000000</i>
   <i type="int" name="OMEGAGRID">     0</i>
   <i name="CSHIFT">     -0.10000000</i>
   <i type="logical" name="SELFENERGY"> F  </i>
   <i type="logical" name="LSPECTRAL"> F  </i>
   <i type="logical" name="ODDONLYGW"> F  </i>
   <i type="logical" name="EVENONLYGW"> F  </i>
   <i type="int" name="NKREDLFX">     1</i>
   <i type="int" name="NKREDLFY">     1</i>
   <i type="int" name="NKREDLFZ">     1</i>
   <i type="int" name="MAXMEM">  1800</i>
   <i type="int" name="TELESCOPE">     0</i>
  </separator>
 </parameters>
 <atominfo>
  <atoms>      54 </atoms>
  <types>       2 </types>
  <array name="atoms" >
   <dimension dim="1">ion</dimension>
   <field type="string">element</field>
   <field type="int">atomtype</field>
   <set>
    <rc><c>Mg</c><c>   1</c></rc>
    <rc><c>Mg</c><c>   1</c></rc>
    <rc><c>Mg</c><c>   1</c></rc>
    <rc><c>Mg</c><c>   1</c></rc>
    <rc><c>Mg</c><c>   1</c></rc>
    <rc><c>Mg</c><c>   1</c></rc>
    <rc><c>Mg</c><c>   1</c></rc>
    <rc><c>Mg</c><c>   1</c></rc>
    <rc><c>Mg</c><c>   1</c></rc>
    <rc><c>Mg</c><c>   1</c></rc>
    <rc><c>Mg</c><c>   1</c></rc>
    <rc><c>Mg</c><c>   1</c></rc>
    <rc><c>Mg</c><c>   1</c></rc>
    <rc><c>Mg</c><c>   1</c></rc>
    <rc><c>Mg</c><c>   1</c></rc>
    <rc><c>Mg</c><c>   1</c></rc>
    <rc><c>Mg</c><c>   1</c></rc>
    <rc><c>Mg</c><c>   1</c></rc>
    <rc><c>B </c><c>   2</c></rc>
    <rc><c>B </c><c>   2</c></rc>
    <rc><c>B </c><c>   2</c></rc>
    <rc><c>B </c><c>   2</c></rc>
    <rc><c>B </c><c>   2</c></rc>
    <rc><c>B </c><c>   2</c></rc>
    <rc><c>B </c><c>   2</c></rc>
    <rc><c>B </c><c>   2</c></rc>
    <rc><c>B </c><c>   2</c></rc>
    <rc><c>B </c><c>   2</c></rc>
    <rc><c>B </c><c>   2</c></rc>
    <rc><c>B </c><c>   2</c></rc>
    <rc><c>B </c><c>   2</c></rc>
    <rc><c>B </c><c>   2</c></rc>
    <rc><c>B </c><c>   2</c></rc>
    <rc><c>B </c><c>   2</c></rc>
    <rc><c>B </c><c>   2</c></rc>
    <rc><c>B </c><c>   2</c></rc>
    <rc><c>B </c><c>   2</c></rc>
    <rc><c>B </c><c>   2</c></rc>
    <rc><c>B </c><c>   2</c></rc>
    <rc><c>B </c><c>   2</c></rc>
    <rc><c>B </c><c>   2</c></rc>
    <rc><c>B </c><c>   2</c></rc>
    <rc><c>B </c><c>   2</c></rc>
    <rc><c>B </c><c>   2</c></rc>
    <rc><c>B </c><c>   2</c></rc>
    <rc><c>B </c><c>   2</c></rc>
    <rc><c>B </c><c>   2</c></rc>
    <rc><c>B </c><c>   2</c></rc>
    <rc><c>B </c><c>   2</c></rc>
    <rc><c>B </c><c>   2</c></rc>
    <rc><c>B </c><c>   2</c></rc>
    <rc><c>B </c><c>   2</c></rc>
    <rc><c>B </c><c>   2</c></rc>
    <rc><c>B </c><c>   2</c></rc>
   </set>
  </array>
  <array name="atomtypes" >
   <dimension dim="1">type</dimension>
   <field type="int">atomspertype</field>
   <field type="string">element</field>
   <field>mass</field>
   <field>valence</field>
   <field type="string">pseudopotential</field>
   <set>
    <rc><c>  18</c><c>Mg</c><c>     24.30500000</c><c>      8.00000000</c><c> PAW_PBE Mg_pv 06Sep2000                </c></rc>
    <rc><c>  36</c><c>B </c><c>     10.81100000</c><c>      3.00000000</c><c> PAW_PBE B 06Sep2000                    </c></rc>
   </set>
  </array>
 </atominfo>
 <structure name="initialpos" >
  <crystal>
   <varray name="basis" >
    <v>       9.22550730       0.00000000       0.00000000 </v>
    <v>      -4.61275365       7.98952369       0.00000000 </v>
    <v>       0.00000000       0.00000000       7.05401601 </v>
   </varray>
   <i name="volume">    519.93324420 </i>
   <varray name="rec_basis" >
    <v>       0.10839512       0.06258195       0.00000000 </v>
    <v>       0.00000000       0.12516391       0.00000000 </v>
    <v>       0.00000000       0.00000000       0.14176322 </v>
   </varray>
  </crystal>
  <varray name="positions" >
   <v>       0.00086108       0.00000000       0.00086108 </v>
   <v>       0.33333333       0.00000000       0.00000000 </v>
   <v>       0.66666667       0.00000000       0.00000000 </v>
   <v>       0.00000000       0.33333333       0.00000000 </v>
   <v>       0.33333333       0.33333333       0.00000000 </v>
   <v>       0.66666667       0.33333333       0.00000000 </v>
   <v>       0.00000000       0.66666667       0.00000000 </v>
   <v>       0.33333333       0.66666667       0.00000000 </v>
   <v>       0.66666667       0.66666667       0.00000000 </v>
   <v>       0.00000000       0.00000000       0.50000000 </v>
   <v>       0.33333333       0.00000000       0.50000000 </v>
   <v>       0.66666667       0.00000000       0.50000000 </v>
   <v>       0.00000000       0.33333333       0.50000000 </v>
   <v>       0.33333333       0.33333333       0.50000000 </v>
   <v>       0.66666667       0.33333333       0.50000000 </v>
   <v>       0.00000000       0.66666667       0.50000000 </v>
   <v>       0.33333333       0.66666667       0.50000000 </v>
   <v>       0.66666667       0.66666667       0.50000000 </v>
   <v>       0.11111111       0.22222222       0.25000000 </v>
   <v>       0.44444444       0.22222222       0.25000000 </v>
   <v>       0.77777778       0.22222222       0.25000000 </v>
   <v>       0.11111111       0.55555556       0.25000000 </v>
   <v>       0.44444444       0.55555556       0.25000000 </v>
   <v>       0.77777778       0.55555556       0.25000000 </v>
   <v>       0.11111111       0.88888889       0.25000000 </v>
   <v>       0.44444444       0.88888889       0.25000000 </v>
   <v>       0.77777778       0.88888889       0.25000000 </v>
   <v>       0.11111111       0.22222222       0.75000000 </v>
   <v>       0.44444444       0.22222222       0.75000000 </v>
   <v>       0.77777778       0.22222222       0.75000000 </v>
   <v>       0.11111111       0.55555556       0.75000000 </v>
   <v>       0.44444444       0.55555556       0.75000000 </v>
   <v>       0.77777778       0.55555556       0.75000000 </v>
   <v>       0.11111111       0.88888889       0.75000000 </v>
   <v>       0.44444444       0.88888889       0.75000000 </v>
   <v>       0.77777778       0.88888889       0.75000000 </v>
   <v>       0.22222222       0.11111111       0.25000000 </v>
   <v>       0.55555556       0.11111111       0.25000000 </v>
   <v>       0.88888889       0.11111111       0.25000000 </v>
   <v>       0.22222222       0.44444444       0.25000000 </v>
   <v>       0.55555556       0.44444444       0.25000000 </v>
   <v>       0.88888889       0.44444444       0.25000000 </v>
   <v>       0.22222222       0.77777778       0.25000000 </v>
   <v>       0.55555556       0.77777778       0.25000000 </v>
   <v>       0.88888889       0.77777778       0.25000000 </v>
   <v>       0.22222222       0.11111111       0.75000000 </v>
   <v>       0.55555556       0.11111111       0.75000000 </v>
   <v>       0.88888889       0.11111111       0.75000000 </v>
   <v>       0.22222222       0.44444444       0.75000000 </v>
   <v>       0.55555556       0.44444444       0.75000000 </v>
   <v>       0.88888889       0.44444444       0.75000000 </v>
   <v>       0.22222222       0.77777778       0.75000000 </v>
   <v>       0.55555556       0.77777778       0.75000000 </v>
   <v>       0.88888889       0.77777778       0.75000000 </v>
  </varray>
 </structure>
 <calculation>
  <scstep>
   <time name="dav">  293.03  294.12</time>
   <time name="total">  294.30  295.39</time>
   <energy>
    <i name="alphaZ">    746.66562666 </i>
    <i name="ewald"> -13043.32509269 </i>
    <i name="hartreedc">  -4938.40393386 </i>
    <i name="XCdc">    921.35623389 </i>
    <i name="pawpsdc">  10589.82125549 </i>
    <i name="pawaedc"> -12528.22584987 </i>
    <i name="eentropy">      0.00054822 </i>
    <i name="bandstr">    390.31709957 </i>
    <i name="atom">  21580.70085878 </i>
    <i name="e_fr_energy">   3718.90674620 </i>
    <i name="e_wo_entrp">   3718.90619798 </i>
    <i name="e_0_energy">   3718.90656346 </i>
   </energy>
  </scstep>
  <scstep>
   <time name="dav">  285.53  286.73</time>
   <time name="total">  285.55  286.76</time>
   <energy>
    <i name="e_fr_energy">    352.10547573 </i>
    <i name="e_wo_entrp">    352.10331883 </i>
    <i name="e_0_energy">    352.10475677 </i>
   </energy>
  </scstep>
  <scstep>
   <time name="dav">  315.09  316.26</time>
   <time name="total">  315.11  316.29</time>
   <energy>
    <i name="e_fr_energy">   -260.22728491 </i>
    <i name="e_wo_entrp">   -260.22440017 </i>
    <i name="e_0_energy">   -260.22632333 </i>
   </energy>
  </scstep>
  <scstep>
   <time name="dav">  316.95  318.30</time>
   <time name="total">  316.97  318.33</time>
   <energy>
    <i name="e_fr_energy">   -306.87716618 </i>
    <i name="e_wo_entrp">   -306.85699013 </i>
    <i name="e_0_energy">   -306.87044083 </i>
   </energy>
  </scstep>
  <scstep>
   <time name="dav">  316.84  318.09</time>
   <time name="total">  332.03  333.34</time>
   <energy>
    <i name="e_fr_energy">   -308.14147320 </i>
    <i name="e_wo_entrp">   -308.12111957 </i>
    <i name="e_0_energy">   -308.13468865 </i>
   </energy>
  </scstep>
  <scstep>
   <time name="dav">  305.62  306.94</time>
   <time name="total">  322.19  323.59</time>
   <energy>
    <i name="e_fr_energy">   -280.63020759 </i>
    <i name="e_wo_entrp">   -280.59912242 </i>
    <i name="e_0_energy">   -280.61984587 </i>
   </energy>
  </scstep>
  <scstep>
   <time name="dav">  325.54  326.92</time>
   <time name="total">  342.54  344.00</time>
   <energy>
    <i name="e_fr_energy">   -276.24351470 </i>
    <i name="e_wo_entrp">   -276.23180644 </i>
    <i name="e_0_energy">   -276.23961194 </i>
   </energy>
  </scstep>
  <scstep>
   <time name="dav">  303.64  304.77</time>
   <time name="total">  320.22  321.42</time>
   <energy>
    <i name="e_fr_energy">   -276.33399078 </i>
    <i name="e_wo_entrp">   -276.31762353 </i>
    <i name="e_0_energy">   -276.32853503 </i>
   </energy>
  </scstep>
  <scstep>
   <time name="dav">  308.28  309.40</time>
   <time name="total">  325.22  326.41</time>
   <energy>
    <i name="e_fr_energy">   -276.19440330 </i>
    <i name="e_wo_entrp">   -276.17914106 </i>
    <i name="e_0_energy">   -276.18931589 </i>
   </energy>
  </scstep>
  <scstep>
   <time name="dav">  353.28  354.58</time>
   <time name="total">  370.50  371.87</time>
   <energy>
    <i name="e_fr_energy">   -276.19507628 </i>
    <i name="e_wo_entrp">   -276.18006353 </i>
    <i name="e_0_energy">   -276.19007203 </i>
   </energy>
  </scstep>
  <scstep>
   <time name="dav">  313.24  314.54</time>
   <time name="total">  329.90  331.30</time>
   <energy>
    <i name="e_fr_energy">   -276.19495232 </i>
    <i name="e_wo_entrp">   -276.17983396 </i>
    <i name="e_0_energy">   -276.18991287 </i>
   </energy>
  </scstep>
  <scstep>
   <time name="dav">  306.08  307.40</time>
   <time name="total">  323.05  324.46</time>
   <energy>
    <i name="e_fr_energy">   -276.19499262 </i>
    <i name="e_wo_entrp">   -276.17991413 </i>
    <i name="e_0_energy">   -276.18996645 </i>
   </energy>
  </scstep>
  <scstep>
   <time name="dav">  313.31  314.69</time>
   <time name="total">  330.02  331.49</time>
   <energy>
    <i name="e_fr_energy">   -276.19499233 </i>
    <i name="e_wo_entrp">   -276.17989713 </i>
    <i name="e_0_energy">   -276.18996060 </i>
   </energy>
  </scstep>
  <scstep>
   <time name="dav">  314.58  315.84</time>
   <time name="total">  331.23  332.55</time>
   <energy>
    <i name="e_fr_energy">   -276.19499321 </i>
    <i name="e_wo_entrp">   -276.17989240 </i>
    <i name="e_0_energy">   -276.18995961 </i>
   </energy>
  </scstep>
  <scstep>
   <time name="dav">  311.86  313.21</time>
   <time name="total">  328.66  330.08</time>
   <energy>
    <i name="e_fr_energy">   -276.19499326 </i>
    <i name="e_wo_entrp">   -276.17989135 </i>
    <i name="e_0_energy">   -276.18995929 </i>
   </energy>
  </scstep>
  <scstep>
   <time name="dav">  273.91  274.96</time>
   <time name="total">  290.43  291.54</time>
   <energy>
    <i name="e_fr_energy">   -276.19499342 </i>
    <i name="e_wo_entrp">   -276.17988990 </i>
    <i name="e_0_energy">   -276.18995891 </i>
   </energy>
  </scstep>
  <scstep>
   <time name="dav">  243.90  245.12</time>
   <time name="total">  260.95  262.25</time>
   <energy>
    <i name="e_fr_energy">   -276.19499322 </i>
    <i name="e_wo_entrp">   -276.17989006 </i>
    <i name="e_0_energy">   -276.18995884 </i>
   </energy>
  </scstep>
  <scstep>
   <time name="dav">  210.00  210.93</time>
   <time name="total">  211.43  212.37</time>
   <energy>
    <i name="alphaZ">    746.66562666 </i>
    <i name="ewald"> -13043.32509269 </i>
    <i name="hartreedc">  -4824.56273963 </i>
    <i name="XCdc">    931.38642147 </i>
    <i name="pawpsdc">  11136.31895098 </i>
    <i name="pawaedc"> -13086.37864953 </i>
    <i name="eentropy">     -0.01510318 </i>
    <i name="bandstr">  -3716.98526608 </i>
    <i name="atom">  21580.70085878 </i>
    <i name="e_fr_energy">   -276.19499322 </i>
    <i name="e_wo_entrp">   -276.17989004 </i>
    <i name="e_0_energy">   -276.18995883 </i>
   </energy>
  </scstep>
  <parameters_embedded>
   <separator name="dft+d2" >
    <i type="logical" name="LVDW"> F  </i>
   </separator>
  </parameters_embedded>
  <structure>
   <crystal>
    <varray name="basis" >
     <v>       9.22550730       0.00000000       0.00000000 </v>
     <v>      -4.61275365       7.98952369       0.00000000 </v>
     <v>       0.00000000       0.00000000       7.05401601 </v>
    </varray>
    <i name="volume">    519.93324420 </i>
    <varray name="rec_basis" >
     <v>       0.10839512       0.06258195       0.00000000 </v>
     <v>       0.00000000       0.12516391       0.00000000 </v>
     <v>       0.00000000       0.00000000       0.14176322 </v>
    </varray>
   </crystal>
   <varray name="positions" >
    <v>       0.00086108       0.00000000       0.00086108 </v>
    <v>       0.33333333       0.00000000       0.00000000 </v>
    <v>       0.66666667       0.00000000       0.00000000 </v>
    <v>       0.00000000       0.33333333       0.00000000 </v>
    <v>       0.33333333       0.33333333       0.00000000 </v>
    <v>       0.66666667       0.33333333       0.00000000 </v>
    <v>       0.00000000       0.66666667       0.00000000 </v>
    <v>       0.33333333       0.66666667       0.00000000 </v>
    <v>       0.66666667       0.66666667       0.00000000 </v>
    <v>       0.00000000       0.00000000       0.50000000 </v>
    <v>       0.33333333       0.00000000       0.50000000 </v>
    <v>       0.66666667       0.00000000       0.50000000 </v>
    <v>       0.00000000       0.33333333       0.50000000 </v>
    <v>       0.33333333       0.33333333       0.50000000 </v>
    <v>       0.66666667       0.33333333       0.50000000 </v>
    <v>       0.00000000       0.66666667       0.50000000 </v>
    <v>       0.33333333       0.66666667       0.50000000 </v>
    <v>       0.66666667       0.66666667       0.50000000 </v>
    <v>       0.11111111       0.22222222       0.25000000 </v>
    <v>       0.44444444       0.22222222       0.25000000 </v>
    <v>       0.77777778       0.22222222       0.25000000 </v>
    <v>       0.11111111       0.55555556       0.25000000 </v>
    <v>       0.44444444       0.55555556       0.25000000 </v>
    <v>       0.77777778       0.55555556       0.25000000 </v>
    <v>       0.11111111       0.88888889       0.25000000 </v>
    <v>       0.44444444       0.88888889       0.25000000 </v>
    <v>       0.77777778       0.88888889       0.25000000 </v>
    <v>       0.11111111       0.22222222       0.75000000 </v>
    <v>       0.44444444       0.22222222       0.75000000 </v>
    <v>       0.77777778       0.22222222       0.75000000 </v>
    <v>       0.11111111       0.55555556       0.75000000 </v>
    <v>       0.44444444       0.55555556       0.75000000 </v>
    <v>       0.77777778       0.55555556       0.75000000 </v>
    <v>       0.11111111       0.88888889       0.75000000 </v>
    <v>       0.44444444       0.88888889       0.75000000 </v>
    <v>       0.77777778       0.88888889       0.75000000 </v>
    <v>       0.22222222       0.11111111       0.25000000 </v>
    <v>       0.55555556       0.11111111       0.25000000 </v>
    <v>       0.88888889       0.11111111       0.25000000 </v>
    <v>       0.22222222       0.44444444       0.25000000 </v>
    <v>       0.55555556       0.44444444       0.25000000 </v>
    <v>       0.88888889       0.44444444       0.25000000 </v>
    <v>       0.22222222       0.77777778       0.25000000 </v>
    <v>       0.55555556       0.77777778       0.25000000 </v>
    <v>       0.88888889       0.77777778       0.25000000 </v>
    <v>       0.22222222       0.11111111       0.75000000 </v>
    <v>       0.55555556       0.11111111       0.75000000 </v>
    <v>       0.88888889       0.11111111       0.75000000 </v>
    <v>       0.22222222       0.44444444       0.75000000 </v>
    <v>       0.55555556       0.44444444       0.75000000 </v>
    <v>       0.88888889       0.44444444       0.75000000 </v>
    <v>       0.22222222       0.77777778       0.75000000 </v>
    <v>       0.55555556       0.77777778       0.75000000 </v>
    <v>       0.88888889       0.77777778       0.75000000 </v>
   </varray>
  </structure>
  <varray name="forces" >
   <v>      -0.05672914       0.00000000      -0.04371450 </v>
   <v>       0.00740571       0.00000000      -0.00081975 </v>
   <v>       0.00722395       0.00000000      -0.00079971 </v>
   <v>       0.00132169      -0.00344428      -0.00080013 </v>
   <v>       0.00133459       0.00348120      -0.00081175 </v>
   <v>       0.00020528       0.00000078      -0.00021177 </v>
   <v>       0.00133459      -0.00348120      -0.00081175 </v>
   <v>       0.00020528      -0.00000078      -0.00021177 </v>
   <v>       0.00132169       0.00344428      -0.00080013 </v>
   <v>      -0.00041093       0.00000000       0.00488588 </v>
   <v>       0.00001472       0.00000000       0.00054393 </v>
   <v>      -0.00000808       0.00000000       0.00053569 </v>
   <v>      -0.00003647      -0.00000308       0.00053756 </v>
   <v>      -0.00001076       0.00002806       0.00054145 </v>
   <v>       0.00000932       0.00000162       0.00008033 </v>
   <v>      -0.00001076      -0.00002806       0.00054145 </v>
   <v>       0.00000932      -0.00000162       0.00008033 </v>
   <v>      -0.00003647       0.00000308       0.00053756 </v>
   <v>      -0.00057261       0.00448558       0.00318475 </v>
   <v>       0.00078367       0.00036016       0.00090243 </v>
   <v>       0.00075582      -0.00034523      -0.00075946 </v>
   <v>       0.00026912       0.00043311       0.00042822 </v>
   <v>      -0.00028330      -0.00011445      -0.00011800 </v>
   <v>       0.00015891      -0.00001339       0.00006824 </v>
   <v>       0.00833289      -0.00514917       0.00642804 </v>
   <v>      -0.00048133      -0.00031872       0.00015353 </v>
   <v>       0.00044664       0.00058135       0.00009242 </v>
   <v>      -0.00056101      -0.00444798       0.00314916 </v>
   <v>       0.00073788       0.00033616      -0.00075660 </v>
   <v>       0.00080651      -0.00037681       0.00088073 </v>
   <v>      -0.00027167       0.00012066      -0.00011280 </v>
   <v>       0.00025618      -0.00042587       0.00042887 </v>
   <v>       0.00015458       0.00004228       0.00006516 </v>
   <v>       0.00039239      -0.00055745       0.00013377 </v>
   <v>      -0.00048132       0.00030499       0.00015957 </v>
   <v>       0.00798487       0.00492707       0.00602053 </v>
   <v>       0.00833289       0.00514917       0.00642804 </v>
   <v>      -0.00048133       0.00031872       0.00015353 </v>
   <v>       0.00044664      -0.00058135       0.00009242 </v>
   <v>       0.00015891       0.00001339       0.00006824 </v>
   <v>       0.00026912      -0.00043311       0.00042822 </v>
   <v>      -0.00028330       0.00011445      -0.00011800 </v>
   <v>       0.00078367      -0.00036016       0.00090243 </v>
   <v>       0.00075582       0.00034523      -0.00075946 </v>
   <v>      -0.00057261      -0.00448558       0.00318475 </v>
   <v>       0.00039239       0.00055745       0.00013377 </v>
   <v>      -0.00048132      -0.00030499       0.00015957 </v>
   <v>       0.00798487      -0.00492707       0.00602053 </v>
   <v>       0.00015458      -0.00004228       0.00006516 </v>
   <v>      -0.00027167      -0.00012066      -0.00011280 </v>
   <v>       0.00025618       0.00042587       0.00042887 </v>
   <v>       0.00073788      -0.00033616      -0.00075660 </v>
   <v>       0.00080651       0.00037681       0.00088073 </v>
   <v>      -0.00056101       0.00444798       0.00314916 </v>
  </varray>
  <varray name="stress" >
   <v>       0.00469557       0.00000000       0.00290895 </v>
   <v>       0.00000000       0.00206247       0.00000000 </v>
   <v>       0.00294963       0.00000000      -0.04586576 </v>
  </varray>
  <energy>
   <i name="e_fr_energy">   -276.19499322 </i>
   <i name="e_wo_entrp">   -276.18995883 </i>
   <i name="e_0_energy">     -0.01510318 </i>
  </energy>
  <time name="totalsc"> 5841.96 5865.97</time>
  <eigenvalues>
   <array>
    <dimension dim="1">band</dimension>
    <dimension dim="2">kpoint</dimension>
    <dimension dim="3">spin</dimension>
    <field>eigene</field>
    <field>occ</field>
    <set>
     <set comment="spin 1">
      <set comment="kpoint 1">
       <r>  -35.8961    1.0000 </r>
       <r>  -35.8960    1.0000 </r>
       <r>  -35.8959    1.0000 </r>
       <r>  -35.8959    1.0000 </r>
       <r>  -35.8957    1.0000 </r>
       <r>  -35.8957    1.0000 </r>
       <r>  -35.8953    1.0000 </r>
       <r>  -35.8952    1.0000 </r>
       <r>  -35.8951    1.0000 </r>
       <r>  -35.8951    1.0000 </r>
       <r>  -35.8950    1.0000 </r>
       <r>  -35.8949    1.0000 </r>
       <r>  -35.8938    1.0000 </r>
       <r>  -35.8938    1.0000 </r>
       <r>  -35.8937    1.0000 </r>
       <r>  -35.8937    1.0000 </r>
       <r>  -35.8930    1.0000 </r>
       <r>  -35.8930    1.0000 </r>
       <r>  -35.8929    1.0000 </r>
       <r>  -35.8929    1.0000 </r>
       <r>  -35.8729    1.0000 </r>
       <r>  -35.8729    1.0000 </r>
       <r>  -35.8727    1.0000 </r>
       <r>  -35.8727    1.0000 </r>
       <r>  -35.8726    1.0000 </r>
       <r>  -35.8726    1.0000 </r>
       <r>  -35.8723    1.0000 </r>
       <r>  -35.8722    1.0000 </r>
       <r>  -35.8721    1.0000 </r>
       <r>  -35.8721    1.0000 </r>
       <r>  -35.8720    1.0000 </r>
       <r>  -35.8720    1.0000 </r>
       <r>  -35.8653    1.0000 </r>
       <r>  -35.8653    1.0000 </r>
       <r>  -35.8648    1.0000 </r>
       <r>  -35.8648    1.0000 </r>
       <r>  -35.8563    1.0000 </r>
       <r>  -35.8515    1.0000 </r>
       <r>  -35.8515    1.0000 </r>
       <r>  -35.8513    1.0000 </r>
       <r>  -35.8513    1.0000 </r>
       <r>  -35.8511    1.0000 </r>
       <r>  -35.8511    1.0000 </r>
       <r>  -35.8490    1.0000 </r>
       <r>  -35.8487    1.0000 </r>
       <r>  -35.8487    1.0000 </r>
       <r>  -35.8446    1.0000 </r>
       <r>  -35.8446    1.0000 </r>
       <r>  -35.8444    1.0000 </r>
       <r>  -35.8444    1.0000 </r>
       <r>  -35.8442    1.0000 </r>
       <r>  -35.8442    1.0000 </r>
       <r>  -35.8422    1.0000 </r>
       <r>  -35.8421    1.0000 </r>
       <r>   -6.4318    1.0000 </r>
       <r>   -5.1477    1.0000 </r>
       <r>   -4.5165    1.0000 </r>
       <r>   -4.5150    1.0000 </r>
       <r>   -4.5147    1.0000 </r>
       <r>   -4.5147    1.0000 </r>
       <r>   -4.5143    1.0000 </r>
       <r>   -4.5129    1.0000 </r>
       <r>   -3.4122    1.0000 </r>
       <r>   -3.4110    1.0000 </r>
       <r>   -3.4107    1.0000 </r>
       <r>   -3.4107    1.0000 </r>
       <r>   -3.4104    1.0000 </r>
       <r>   -3.4092    1.0000 </r>
       <r>   -1.4348    1.0000 </r>
       <r>   -1.2412    1.0000 </r>
       <r>   -1.2412    1.0000 </r>
       <r>   -1.2402    1.0000 </r>
       <r>   -1.2402    1.0000 </r>
       <r>   -0.3653    1.0000 </r>
       <r>   -0.3653    1.0000 </r>
       <r>   -0.3644    1.0000 </r>
       <r>   -0.3644    1.0000 </r>
       <r>    0.1545    1.0000 </r>
       <r>    0.1545    1.0000 </r>
       <r>    0.7081    1.0000 </r>
       <r>    0.7102    1.0000 </r>
       <r>    0.7108    1.0000 </r>
       <r>    0.7108    1.0000 </r>
       <r>    0.7114    1.0000 </r>
       <r>    0.7135    1.0000 </r>
       <r>    0.8271    1.0000 </r>
       <r>    0.8271    1.0000 </r>
       <r>    0.9277    1.0000 </r>
       <r>    0.9279    1.0000 </r>
       <r>    0.9286    1.0000 </r>
       <r>    0.9286    1.0000 </r>
       <r>    0.9293    1.0000 </r>
       <r>    0.9294    1.0000 </r>
       <r>    1.6668    1.0000 </r>
       <r>    1.6670    1.0000 </r>
       <r>    1.6677    1.0000 </r>
       <r>    1.6677    1.0000 </r>
       <r>    1.6684    1.0000 </r>
       <r>    1.6686    1.0000 </r>
       <r>    3.0332    1.0000 </r>
       <r>    4.0191    1.0000 </r>
       <r>    4.0191    1.0000 </r>
       <r>    4.0212    1.0000 </r>
       <r>    4.0212    1.0000 </r>
       <r>    4.2978    1.0000 </r>
       <r>    4.2982    1.0000 </r>
       <r>    4.2986    1.0000 </r>
       <r>    4.2986    1.0000 </r>
       <r>    4.2990    1.0000 </r>
       <r>    4.2993    1.0000 </r>
       <r>    4.5926    1.0000 </r>
       <r>    4.5928    1.0000 </r>
       <r>    4.5933    1.0000 </r>
       <r>    4.5933    1.0000 </r>
       <r>    4.5937    1.0000 </r>
       <r>    4.5939    1.0000 </r>
       <r>    4.8441    1.0000 </r>
       <r>    4.8462    1.0000 </r>
       <r>    4.8466    1.0000 </r>
       <r>    4.8466    1.0000 </r>
       <r>    4.8471    1.0000 </r>
       <r>    4.8492    1.0000 </r>
       <r>    6.3979   -0.0061 </r>
       <r>    6.3979   -0.0061 </r>
       <r>    6.7659    0.0000 </r>
       <r>    6.7659    0.0000 </r>
       <r>    7.3203    0.0000 </r>
       <r>    7.3214    0.0000 </r>
       <r>    7.3224    0.0000 </r>
       <r>    7.3224    0.0000 </r>
       <r>    7.3235    0.0000 </r>
       <r>    7.3246    0.0000 </r>
       <r>    7.6204    0.0000 </r>
       <r>    7.7913    0.0000 </r>
       <r>    7.7913    0.0000 </r>
       <r>    7.7933    0.0000 </r>
       <r>    7.7933    0.0000 </r>
       <r>    9.2537    0.0000 </r>
       <r>    9.2552    0.0000 </r>
       <r>    9.2561    0.0000 </r>
       <r>    9.2561    0.0000 </r>
       <r>    9.2570    0.0000 </r>
       <r>    9.2585    0.0000 </r>
       <r>    9.6220    0.0000 </r>
       <r>    9.6220    0.0000 </r>
       <r>   11.0625    0.0000 </r>
       <r>   11.0629    0.0000 </r>
       <r>   11.0635    0.0000 </r>
       <r>   11.0635    0.0000 </r>
       <r>   11.0641    0.0000 </r>
       <r>   11.0645    0.0000 </r>
       <r>   11.2118    0.0000 </r>
       <r>   11.2122    0.0000 </r>
       <r>   11.2135    0.0000 </r>
       <r>   11.2135    0.0000 </r>
       <r>   11.2147    0.0000 </r>
       <r>   11.2151    0.0000 </r>
       <r>   12.0203    0.0000 </r>
       <r>   12.0209    0.0000 </r>
       <r>   12.0213    0.0000 </r>
      </set>
      <set comment="kpoint 2">
       <r>  -35.9013    1.0000 </r>
       <r>  -35.9005    1.0000 </r>
       <r>  -35.8986    1.0000 </r>
       <r>  -35.8986    1.0000 </r>
       <r>  -35.8979    1.0000 </r>
       <r>  -35.8978    1.0000 </r>
       <r>  -35.8974    1.0000 </r>
       <r>  -35.8973    1.0000 </r>
       <r>  -35.8965    1.0000 </r>
       <r>  -35.8965    1.0000 </r>
       <r>  -35.8927    1.0000 </r>
       <r>  -35.8927    1.0000 </r>
       <r>  -35.8920    1.0000 </r>
       <r>  -35.8919    1.0000 </r>
       <r>  -35.8895    1.0000 </r>
       <r>  -35.8895    1.0000 </r>
       <r>  -35.8892    1.0000 </r>
       <r>  -35.8887    1.0000 </r>
       <r>  -35.8887    1.0000 </r>
       <r>  -35.8885    1.0000 </r>
       <r>  -35.8742    1.0000 </r>
       <r>  -35.8741    1.0000 </r>
       <r>  -35.8740    1.0000 </r>
       <r>  -35.8735    1.0000 </r>
       <r>  -35.8735    1.0000 </r>
       <r>  -35.8734    1.0000 </r>
       <r>  -35.8725    1.0000 </r>
       <r>  -35.8725    1.0000 </r>
       <r>  -35.8719    1.0000 </r>
       <r>  -35.8719    1.0000 </r>
       <r>  -35.8711    1.0000 </r>
       <r>  -35.8705    1.0000 </r>
       <r>  -35.8665    1.0000 </r>
       <r>  -35.8660    1.0000 </r>
       <r>  -35.8656    1.0000 </r>
       <r>  -35.8651    1.0000 </r>
       <r>  -35.8561    1.0000 </r>
       <r>  -35.8524    1.0000 </r>
       <r>  -35.8518    1.0000 </r>
       <r>  -35.8517    1.0000 </r>
       <r>  -35.8508    1.0000 </r>
       <r>  -35.8507    1.0000 </r>
       <r>  -35.8504    1.0000 </r>
       <r>  -35.8488    1.0000 </r>
       <r>  -35.8488    1.0000 </r>
       <r>  -35.8488    1.0000 </r>
       <r>  -35.8454    1.0000 </r>
       <r>  -35.8449    1.0000 </r>
       <r>  -35.8448    1.0000 </r>
       <r>  -35.8440    1.0000 </r>
       <r>  -35.8439    1.0000 </r>
       <r>  -35.8436    1.0000 </r>
       <r>  -35.8423    1.0000 </r>
       <r>  -35.8422    1.0000 </r>
       <r>   -6.3775    1.0000 </r>
       <r>   -5.0992    1.0000 </r>
       <r>   -5.0923    1.0000 </r>
       <r>   -4.7767    1.0000 </r>
       <r>   -4.7760    1.0000 </r>
       <r>   -4.1518    1.0000 </r>
       <r>   -4.1511    1.0000 </r>
       <r>   -3.9381    1.0000 </r>
       <r>   -3.8435    1.0000 </r>
       <r>   -3.6503    1.0000 </r>
       <r>   -3.6497    1.0000 </r>
       <r>   -3.0780    1.0000 </r>
       <r>   -3.0774    1.0000 </r>
       <r>   -2.7943    1.0000 </r>
       <r>   -1.8397    1.0000 </r>
       <r>   -1.8390    1.0000 </r>
       <r>   -1.3727    1.0000 </r>
       <r>   -0.9313    1.0000 </r>
       <r>   -0.9307    1.0000 </r>
       <r>   -0.8958    1.0000 </r>
       <r>   -0.8957    1.0000 </r>
       <r>   -0.1549    1.0000 </r>
       <r>   -0.0473    1.0000 </r>
       <r>   -0.0472    1.0000 </r>
       <r>    0.0786    1.0000 </r>
       <r>    0.4063    1.0000 </r>
       <r>    0.4064    1.0000 </r>
       <r>    0.4269    1.0000 </r>
       <r>    0.4279    1.0000 </r>
       <r>    0.5309    1.0000 </r>
       <r>    0.5311    1.0000 </r>
       <r>    0.6475    1.0000 </r>
       <r>    1.0985    1.0000 </r>
       <r>    1.0995    1.0000 </r>
       <r>    1.1746    1.0000 </r>
       <r>    1.1748    1.0000 </r>
       <r>    1.1890    1.0000 </r>
       <r>    1.1892    1.0000 </r>
       <r>    1.4135    1.0000 </r>
       <r>    1.5118    1.0000 </r>
       <r>    1.5119    1.0000 </r>
       <r>    2.0649    1.0000 </r>
       <r>    2.2162    1.0000 </r>
       <r>    2.2165    1.0000 </r>
       <r>    2.7388    1.0000 </r>
       <r>    3.0858    1.0000 </r>
       <r>    3.3996    1.0000 </r>
       <r>    3.4007    1.0000 </r>
       <r>    3.9131    1.0000 </r>
       <r>    3.9135    1.0000 </r>
       <r>    4.0524    1.0000 </r>
       <r>    4.2096    1.0000 </r>
       <r>    4.2097    1.0000 </r>
       <r>    4.2493    1.0000 </r>
       <r>    4.2496    1.0000 </r>
       <r>    4.3151    1.0000 </r>
       <r>    4.3400    1.0000 </r>
       <r>    4.5509    1.0000 </r>
       <r>    4.5510    1.0000 </r>
       <r>    4.5903    1.0000 </r>
       <r>    4.5913    1.0000 </r>
       <r>    4.6103    1.0000 </r>
       <r>    4.6113    1.0000 </r>
       <r>    4.6318    1.0000 </r>
       <r>    4.9363    1.0000 </r>
       <r>    5.1711    1.0000 </r>
       <r>    5.1721    1.0000 </r>
       <r>    5.4231    1.0003 </r>
       <r>    6.1135    0.0556 </r>
       <r>    6.1565   -0.0065 </r>
       <r>    6.2642   -0.0313 </r>
       <r>    6.5080   -0.0006 </r>
       <r>    6.6261    0.0000 </r>
       <r>    6.7177    0.0000 </r>
       <r>    6.7185    0.0000 </r>
       <r>    7.1877    0.0000 </r>
       <r>    7.1888    0.0000 </r>
       <r>    7.6682    0.0000 </r>
       <r>    7.9227    0.0000 </r>
       <r>    7.9233    0.0000 </r>
       <r>    8.3941    0.0000 </r>
       <r>    8.3950    0.0000 </r>
       <r>    8.5908    0.0000 </r>
       <r>    8.8127    0.0000 </r>
       <r>    9.1208    0.0000 </r>
       <r>    9.1218    0.0000 </r>
       <r>    9.5939    0.0000 </r>
       <r>    9.5948    0.0000 </r>
       <r>    9.6502    0.0000 </r>
       <r>    9.8402    0.0000 </r>
       <r>    9.8403    0.0000 </r>
       <r>   10.2093    0.0000 </r>
       <r>   10.6675    0.0000 </r>
       <r>   10.6679    0.0000 </r>
       <r>   11.0127    0.0000 </r>
       <r>   11.2149    0.0000 </r>
       <r>   11.2150    0.0000 </r>
       <r>   11.2738    0.0000 </r>
       <r>   11.3997    0.0000 </r>
       <r>   11.4000    0.0000 </r>
       <r>   11.7122    0.0000 </r>
       <r>   11.7123    0.0000 </r>
       <r>   11.7904    0.0000 </r>
       <r>   11.7915    0.0000 </r>
       <r>   11.8878    0.0000 </r>
       <r>   12.1984    0.0000 </r>
      </set>
      <set comment="kpoint 3">
       <r>  -35.9048    1.0000 </r>
       <r>  -35.9039    1.0000 </r>
       <r>  -35.9004    1.0000 </r>
       <r>  -35.9004    1.0000 </r>
       <r>  -35.8998    1.0000 </r>
       <r>  -35.8998    1.0000 </r>
       <r>  -35.8996    1.0000 </r>
       <r>  -35.8995    1.0000 </r>
       <r>  -35.8990    1.0000 </r>
       <r>  -35.8989    1.0000 </r>
       <r>  -35.8900    1.0000 </r>
       <r>  -35.8900    1.0000 </r>
       <r>  -35.8893    1.0000 </r>
       <r>  -35.8892    1.0000 </r>
       <r>  -35.8849    1.0000 </r>
       <r>  -35.8848    1.0000 </r>
       <r>  -35.8841    1.0000 </r>
       <r>  -35.8841    1.0000 </r>
       <r>  -35.8822    1.0000 </r>
       <r>  -35.8815    1.0000 </r>
       <r>  -35.8768    1.0000 </r>
       <r>  -35.8767    1.0000 </r>
       <r>  -35.8761    1.0000 </r>
       <r>  -35.8761    1.0000 </r>
       <r>  -35.8749    1.0000 </r>
       <r>  -35.8743    1.0000 </r>
       <r>  -35.8731    1.0000 </r>
       <r>  -35.8731    1.0000 </r>
       <r>  -35.8725    1.0000 </r>
       <r>  -35.8724    1.0000 </r>
       <r>  -35.8701    1.0000 </r>
       <r>  -35.8695    1.0000 </r>
       <r>  -35.8694    1.0000 </r>
       <r>  -35.8688    1.0000 </r>
       <r>  -35.8665    1.0000 </r>
       <r>  -35.8659    1.0000 </r>
       <r>  -35.8555    1.0000 </r>
       <r>  -35.8535    1.0000 </r>
       <r>  -35.8520    1.0000 </r>
       <r>  -35.8520    1.0000 </r>
       <r>  -35.8502    1.0000 </r>
       <r>  -35.8502    1.0000 </r>
       <r>  -35.8498    1.0000 </r>
       <r>  -35.8491    1.0000 </r>
       <r>  -35.8491    1.0000 </r>
       <r>  -35.8483    1.0000 </r>
       <r>  -35.8465    1.0000 </r>
       <r>  -35.8451    1.0000 </r>
       <r>  -35.8451    1.0000 </r>
       <r>  -35.8435    1.0000 </r>
       <r>  -35.8434    1.0000 </r>
       <r>  -35.8431    1.0000 </r>
       <r>  -35.8425    1.0000 </r>
       <r>  -35.8425    1.0000 </r>
       <r>   -6.2151    1.0000 </r>
       <r>   -5.5705    1.0000 </r>
       <r>   -4.9535    1.0000 </r>
       <r>   -4.9345    1.0000 </r>
       <r>   -4.9338    1.0000 </r>
       <r>   -4.3722    1.0000 </r>
       <r>   -3.7944    1.0000 </r>
       <r>   -3.7938    1.0000 </r>
       <r>   -3.6911    1.0000 </r>
       <r>   -3.6904    1.0000 </r>
       <r>   -3.0971    1.0000 </r>
       <r>   -2.6540    1.0000 </r>
       <r>   -2.6533    1.0000 </r>
       <r>   -2.5106    1.0000 </r>
       <r>   -2.5099    1.0000 </r>
       <r>   -2.1050    1.0000 </r>
       <r>   -1.5598    1.0000 </r>
       <r>   -1.5592    1.0000 </r>
       <r>   -1.1870    1.0000 </r>
       <r>   -1.1532    1.0000 </r>
       <r>   -0.6677    1.0000 </r>
       <r>   -0.6677    1.0000 </r>
       <r>   -0.4559    1.0000 </r>
       <r>   -0.2896    1.0000 </r>
       <r>   -0.0367    1.0000 </r>
       <r>   -0.0366    1.0000 </r>
       <r>    0.1611    1.0000 </r>
       <r>    0.1612    1.0000 </r>
       <r>    0.2545    1.0000 </r>
       <r>    0.2555    1.0000 </r>
       <r>    0.7556    1.0000 </r>
       <r>    0.7558    1.0000 </r>
       <r>    1.3338    1.0000 </r>
       <r>    1.3342    1.0000 </r>
       <r>    1.5815    1.0000 </r>
       <r>    1.5825    1.0000 </r>
       <r>    1.9398    1.0000 </r>
       <r>    1.9401    1.0000 </r>
       <r>    2.1026    1.0000 </r>
       <r>    2.1042    1.0000 </r>
       <r>    2.1044    1.0000 </r>
       <r>    2.7607    1.0000 </r>
       <r>    2.7617    1.0000 </r>
       <r>    2.7727    1.0000 </r>
       <r>    2.7731    1.0000 </r>
       <r>    3.1660    1.0000 </r>
       <r>    3.1664    1.0000 </r>
       <r>    3.2225    1.0000 </r>
       <r>    3.2428    1.0000 </r>
       <r>    3.5964    1.0000 </r>
       <r>    3.5968    1.0000 </r>
       <r>    3.8017    1.0000 </r>
       <r>    3.8019    1.0000 </r>
       <r>    3.8281    1.0000 </r>
       <r>    3.8624    1.0000 </r>
       <r>    3.9017    1.0000 </r>
       <r>    4.1852    1.0000 </r>
       <r>    4.2229    1.0000 </r>
       <r>    4.2230    1.0000 </r>
       <r>    4.4675    1.0000 </r>
       <r>    4.4684    1.0000 </r>
       <r>    5.0364    1.0000 </r>
       <r>    5.1133    1.0000 </r>
       <r>    5.1142    1.0000 </r>
       <r>    5.1863    1.0000 </r>
       <r>    5.3533    1.0000 </r>
       <r>    5.3653    1.0001 </r>
       <r>    5.5793    1.0077 </r>
       <r>    5.5803    1.0078 </r>
       <r>    5.8239    0.9874 </r>
       <r>    5.9222    0.7403 </r>
       <r>    5.9518    0.6257 </r>
       <r>    6.1490    0.0013 </r>
       <r>    6.1499    0.0003 </r>
       <r>    6.2699   -0.0302 </r>
       <r>    6.6035   -0.0001 </r>
       <r>    6.6045    0.0000 </r>
       <r>    7.8168    0.0000 </r>
       <r>    8.4032    0.0000 </r>
       <r>    8.4172    0.0000 </r>
       <r>    8.4177    0.0000 </r>
       <r>    8.9807    0.0000 </r>
       <r>    8.9815    0.0000 </r>
       <r>    9.0659    0.0000 </r>
       <r>    9.0668    0.0000 </r>
       <r>    9.4139    0.0000 </r>
       <r>    9.8768    0.0000 </r>
       <r>    9.9169    0.0000 </r>
       <r>   10.1104    0.0000 </r>
       <r>   10.1110    0.0000 </r>
       <r>   10.1233    0.0000 </r>
       <r>   10.1243    0.0000 </r>
       <r>   10.4610    0.0000 </r>
       <r>   10.4611    0.0000 </r>
       <r>   11.1690    0.0000 </r>
       <r>   11.2872    0.0000 </r>
       <r>   11.2882    0.0000 </r>
       <r>   11.5735    0.0000 </r>
       <r>   11.6953    0.0000 </r>
       <r>   11.6954    0.0000 </r>
       <r>   11.8048    0.0000 </r>
       <r>   12.0872    0.0000 </r>
       <r>   12.0873    0.0000 </r>
       <r>   12.1964    0.0000 </r>
       <r>   12.2179    0.0000 </r>
       <r>   12.2182    0.0000 </r>
      </set>
      <set comment="kpoint 4">
       <r>  -35.9060    1.0000 </r>
       <r>  -35.9051    1.0000 </r>
       <r>  -35.9009    1.0000 </r>
       <r>  -35.9008    1.0000 </r>
       <r>  -35.9008    1.0000 </r>
       <r>  -35.9007    1.0000 </r>
       <r>  -35.9001    1.0000 </r>
       <r>  -35.9000    1.0000 </r>
       <r>  -35.9000    1.0000 </r>
       <r>  -35.8998    1.0000 </r>
       <r>  -35.8889    1.0000 </r>
       <r>  -35.8888    1.0000 </r>
       <r>  -35.8882    1.0000 </r>
       <r>  -35.8881    1.0000 </r>
       <r>  -35.8806    1.0000 </r>
       <r>  -35.8805    1.0000 </r>
       <r>  -35.8804    1.0000 </r>
       <r>  -35.8804    1.0000 </r>
       <r>  -35.8798    1.0000 </r>
       <r>  -35.8798    1.0000 </r>
       <r>  -35.8797    1.0000 </r>
       <r>  -35.8796    1.0000 </r>
       <r>  -35.8756    1.0000 </r>
       <r>  -35.8755    1.0000 </r>
       <r>  -35.8752    1.0000 </r>
       <r>  -35.8750    1.0000 </r>
       <r>  -35.8748    1.0000 </r>
       <r>  -35.8746    1.0000 </r>
       <r>  -35.8735    1.0000 </r>
       <r>  -35.8734    1.0000 </r>
       <r>  -35.8728    1.0000 </r>
       <r>  -35.8728    1.0000 </r>
       <r>  -35.8679    1.0000 </r>
       <r>  -35.8677    1.0000 </r>
       <r>  -35.8673    1.0000 </r>
       <r>  -35.8671    1.0000 </r>
       <r>  -35.8547    1.0000 </r>
       <r>  -35.8545    1.0000 </r>
       <r>  -35.8521    1.0000 </r>
       <r>  -35.8521    1.0000 </r>
       <r>  -35.8498    1.0000 </r>
       <r>  -35.8497    1.0000 </r>
       <r>  -35.8496    1.0000 </r>
       <r>  -35.8495    1.0000 </r>
       <r>  -35.8494    1.0000 </r>
       <r>  -35.8476    1.0000 </r>
       <r>  -35.8473    1.0000 </r>
       <r>  -35.8452    1.0000 </r>
       <r>  -35.8452    1.0000 </r>
       <r>  -35.8431    1.0000 </r>
       <r>  -35.8430    1.0000 </r>
       <r>  -35.8429    1.0000 </r>
       <r>  -35.8428    1.0000 </r>
       <r>  -35.8427    1.0000 </r>
       <r>   -5.9462    1.0000 </r>
       <r>   -5.9450    1.0000 </r>
       <r>   -4.9873    1.0000 </r>
       <r>   -4.9866    1.0000 </r>
       <r>   -4.7114    1.0000 </r>
       <r>   -4.7105    1.0000 </r>
       <r>   -3.8425    1.0000 </r>
       <r>   -3.8420    1.0000 </r>
       <r>   -3.1401    1.0000 </r>
       <r>   -3.1393    1.0000 </r>
       <r>   -3.1390    1.0000 </r>
       <r>   -3.1382    1.0000 </r>
       <r>   -2.5100    1.0000 </r>
       <r>   -2.1447    1.0000 </r>
       <r>   -2.1440    1.0000 </r>
       <r>   -2.1438    1.0000 </r>
       <r>   -2.1430    1.0000 </r>
       <r>   -1.8250    1.0000 </r>
       <r>   -1.5618    1.0000 </r>
       <r>   -0.9161    1.0000 </r>
       <r>   -0.8809    1.0000 </r>
       <r>   -0.8791    1.0000 </r>
       <r>   -0.3942    1.0000 </r>
       <r>   -0.3937    1.0000 </r>
       <r>   -0.3932    1.0000 </r>
       <r>   -0.3927    1.0000 </r>
       <r>    0.1967    1.0000 </r>
       <r>    0.1977    1.0000 </r>
       <r>    0.4178    1.0000 </r>
       <r>    0.4183    1.0000 </r>
       <r>    0.4186    1.0000 </r>
       <r>    0.4191    1.0000 </r>
       <r>    2.1427    1.0000 </r>
       <r>    2.1438    1.0000 </r>
       <r>    2.1441    1.0000 </r>
       <r>    2.1451    1.0000 </r>
       <r>    2.2573    1.0000 </r>
       <r>    2.2575    1.0000 </r>
       <r>    2.2578    1.0000 </r>
       <r>    2.2580    1.0000 </r>
       <r>    2.4539    1.0000 </r>
       <r>    2.4541    1.0000 </r>
       <r>    2.4642    1.0000 </r>
       <r>    2.7841    1.0000 </r>
       <r>    2.7844    1.0000 </r>
       <r>    2.7846    1.0000 </r>
       <r>    2.7849    1.0000 </r>
       <r>    3.1077    1.0000 </r>
       <r>    3.1081    1.0000 </r>
       <r>    3.4925    1.0000 </r>
       <r>    3.4927    1.0000 </r>
       <r>    3.5020    1.0000 </r>
       <r>    3.5036    1.0000 </r>
       <r>    3.8511    1.0000 </r>
       <r>    3.9483    1.0000 </r>
       <r>    3.9485    1.0000 </r>
       <r>    4.1331    1.0000 </r>
       <r>    4.3516    1.0000 </r>
       <r>    4.3519    1.0000 </r>
       <r>    4.4197    1.0000 </r>
       <r>    4.4206    1.0000 </r>
       <r>    4.7308    1.0000 </r>
       <r>    4.8846    1.0000 </r>
       <r>    4.8852    1.0000 </r>
       <r>    5.4832    1.0012 </r>
       <r>    5.4843    1.0012 </r>
       <r>    5.6199    1.0141 </r>
       <r>    5.6213    1.0143 </r>
       <r>    5.6213    1.0143 </r>
       <r>    5.6227    1.0146 </r>
       <r>    5.8149    0.9984 </r>
       <r>    5.8160    0.9971 </r>
       <r>    6.0605    0.1938 </r>
       <r>    6.0616    0.1905 </r>
       <r>    6.0619    0.1895 </r>
       <r>    6.0629    0.1862 </r>
       <r>    6.1977   -0.0315 </r>
       <r>    8.0643    0.0000 </r>
       <r>    8.0660    0.0000 </r>
       <r>    8.6224    0.0000 </r>
       <r>    8.6228    0.0000 </r>
       <r>    9.0464    0.0000 </r>
       <r>    9.0473    0.0000 </r>
       <r>    9.0775    0.0000 </r>
       <r>    9.5494    0.0000 </r>
       <r>    9.5501    0.0000 </r>
       <r>    9.5510    0.0000 </r>
       <r>    9.5517    0.0000 </r>
       <r>    9.9351    0.0000 </r>
       <r>   10.7139    0.0000 </r>
       <r>   10.7149    0.0000 </r>
       <r>   10.7156    0.0000 </r>
       <r>   10.7166    0.0000 </r>
       <r>   11.2548    0.0000 </r>
       <r>   11.2566    0.0000 </r>
       <r>   11.3134    0.0000 </r>
       <r>   11.4053    0.0000 </r>
       <r>   11.4066    0.0000 </r>
       <r>   11.4071    0.0000 </r>
       <r>   11.4085    0.0000 </r>
       <r>   11.7767    0.0000 </r>
       <r>   11.9054    0.0000 </r>
       <r>   11.9061    0.0000 </r>
       <r>   12.2317    0.0000 </r>
       <r>   12.2329    0.0000 </r>
       <r>   12.2498    0.0000 </r>
      </set>
      <set comment="kpoint 5">
       <r>  -35.9013    1.0000 </r>
       <r>  -35.9005    1.0000 </r>
       <r>  -35.8987    1.0000 </r>
       <r>  -35.8986    1.0000 </r>
       <r>  -35.8979    1.0000 </r>
       <r>  -35.8978    1.0000 </r>
       <r>  -35.8974    1.0000 </r>
       <r>  -35.8973    1.0000 </r>
       <r>  -35.8965    1.0000 </r>
       <r>  -35.8965    1.0000 </r>
       <r>  -35.8928    1.0000 </r>
       <r>  -35.8927    1.0000 </r>
       <r>  -35.8920    1.0000 </r>
       <r>  -35.8919    1.0000 </r>
       <r>  -35.8895    1.0000 </r>
       <r>  -35.8894    1.0000 </r>
       <r>  -35.8892    1.0000 </r>
       <r>  -35.8887    1.0000 </r>
       <r>  -35.8886    1.0000 </r>
       <r>  -35.8884    1.0000 </r>
       <r>  -35.8742    1.0000 </r>
       <r>  -35.8741    1.0000 </r>
       <r>  -35.8740    1.0000 </r>
       <r>  -35.8735    1.0000 </r>
       <r>  -35.8735    1.0000 </r>
       <r>  -35.8734    1.0000 </r>
       <r>  -35.8725    1.0000 </r>
       <r>  -35.8725    1.0000 </r>
       <r>  -35.8719    1.0000 </r>
       <r>  -35.8719    1.0000 </r>
       <r>  -35.8711    1.0000 </r>
       <r>  -35.8705    1.0000 </r>
       <r>  -35.8665    1.0000 </r>
       <r>  -35.8660    1.0000 </r>
       <r>  -35.8656    1.0000 </r>
       <r>  -35.8651    1.0000 </r>
       <r>  -35.8561    1.0000 </r>
       <r>  -35.8524    1.0000 </r>
       <r>  -35.8517    1.0000 </r>
       <r>  -35.8517    1.0000 </r>
       <r>  -35.8508    1.0000 </r>
       <r>  -35.8507    1.0000 </r>
       <r>  -35.8504    1.0000 </r>
       <r>  -35.8488    1.0000 </r>
       <r>  -35.8488    1.0000 </r>
       <r>  -35.8488    1.0000 </r>
       <r>  -35.8454    1.0000 </r>
       <r>  -35.8448    1.0000 </r>
       <r>  -35.8448    1.0000 </r>
       <r>  -35.8440    1.0000 </r>
       <r>  -35.8439    1.0000 </r>
       <r>  -35.8436    1.0000 </r>
       <r>  -35.8423    1.0000 </r>
       <r>  -35.8422    1.0000 </r>
       <r>   -6.3775    1.0000 </r>
       <r>   -5.0992    1.0000 </r>
       <r>   -5.0923    1.0000 </r>
       <r>   -4.7770    1.0000 </r>
       <r>   -4.7757    1.0000 </r>
       <r>   -4.1522    1.0000 </r>
       <r>   -4.1508    1.0000 </r>
       <r>   -3.9381    1.0000 </r>
       <r>   -3.8435    1.0000 </r>
       <r>   -3.6506    1.0000 </r>
       <r>   -3.6494    1.0000 </r>
       <r>   -3.0783    1.0000 </r>
       <r>   -3.0771    1.0000 </r>
       <r>   -2.7943    1.0000 </r>
       <r>   -1.8401    1.0000 </r>
       <r>   -1.8387    1.0000 </r>
       <r>   -1.3727    1.0000 </r>
       <r>   -0.9316    1.0000 </r>
       <r>   -0.9304    1.0000 </r>
       <r>   -0.8959    1.0000 </r>
       <r>   -0.8956    1.0000 </r>
       <r>   -0.1549    1.0000 </r>
       <r>   -0.0474    1.0000 </r>
       <r>   -0.0472    1.0000 </r>
       <r>    0.0785    1.0000 </r>
       <r>    0.4063    1.0000 </r>
       <r>    0.4064    1.0000 </r>
       <r>    0.4264    1.0000 </r>
       <r>    0.4284    1.0000 </r>
       <r>    0.5308    1.0000 </r>
       <r>    0.5312    1.0000 </r>
       <r>    0.6475    1.0000 </r>
       <r>    1.0980    1.0000 </r>
       <r>    1.1000    1.0000 </r>
       <r>    1.1745    1.0000 </r>
       <r>    1.1749    1.0000 </r>
       <r>    1.1888    1.0000 </r>
       <r>    1.1893    1.0000 </r>
       <r>    1.4135    1.0000 </r>
       <r>    1.5117    1.0000 </r>
       <r>    1.5120    1.0000 </r>
       <r>    2.0649    1.0000 </r>
       <r>    2.2161    1.0000 </r>
       <r>    2.2166    1.0000 </r>
       <r>    2.7388    1.0000 </r>
       <r>    3.0858    1.0000 </r>
       <r>    3.3990    1.0000 </r>
       <r>    3.4012    1.0000 </r>
       <r>    3.9130    1.0000 </r>
       <r>    3.9136    1.0000 </r>
       <r>    4.0524    1.0000 </r>
       <r>    4.2095    1.0000 </r>
       <r>    4.2098    1.0000 </r>
       <r>    4.2492    1.0000 </r>
       <r>    4.2497    1.0000 </r>
       <r>    4.3151    1.0000 </r>
       <r>    4.3400    1.0000 </r>
       <r>    4.5508    1.0000 </r>
       <r>    4.5510    1.0000 </r>
       <r>    4.5897    1.0000 </r>
       <r>    4.5918    1.0000 </r>
       <r>    4.6098    1.0000 </r>
       <r>    4.6118    1.0000 </r>
       <r>    4.6318    1.0000 </r>
       <r>    4.9363    1.0000 </r>
       <r>    5.1706    1.0000 </r>
       <r>    5.1726    1.0000 </r>
       <r>    5.4231    1.0003 </r>
       <r>    6.1135    0.0556 </r>
       <r>    6.1565   -0.0065 </r>
       <r>    6.2642   -0.0313 </r>
       <r>    6.5080   -0.0006 </r>
       <r>    6.6261    0.0000 </r>
       <r>    6.7173    0.0000 </r>
       <r>    6.7189    0.0000 </r>
       <r>    7.1872    0.0000 </r>
       <r>    7.1893    0.0000 </r>
       <r>    7.6682    0.0000 </r>
       <r>    7.9223    0.0000 </r>
       <r>    7.9236    0.0000 </r>
       <r>    8.3937    0.0000 </r>
       <r>    8.3955    0.0000 </r>
       <r>    8.5908    0.0000 </r>
       <r>    8.8127    0.0000 </r>
       <r>    9.1203    0.0000 </r>
       <r>    9.1223    0.0000 </r>
       <r>    9.5934    0.0000 </r>
       <r>    9.5952    0.0000 </r>
       <r>    9.6502    0.0000 </r>
       <r>    9.8402    0.0000 </r>
       <r>    9.8403    0.0000 </r>
       <r>   10.2093    0.0000 </r>
       <r>   10.6673    0.0000 </r>
       <r>   10.6681    0.0000 </r>
       <r>   11.0127    0.0000 </r>
       <r>   11.2148    0.0000 </r>
       <r>   11.2150    0.0000 </r>
       <r>   11.2738    0.0000 </r>
       <r>   11.3996    0.0000 </r>
       <r>   11.4001    0.0000 </r>
       <r>   11.7121    0.0000 </r>
       <r>   11.7123    0.0000 </r>
       <r>   11.7899    0.0000 </r>
       <r>   11.7920    0.0000 </r>
       <r>   11.8878    0.0000 </r>
       <r>   12.2161    0.0000 </r>
      </set>
      <set comment="kpoint 6">
       <r>  -35.9031    1.0000 </r>
       <r>  -35.9029    1.0000 </r>
       <r>  -35.9022    1.0000 </r>
       <r>  -35.9021    1.0000 </r>
       <r>  -35.9001    1.0000 </r>
       <r>  -35.8993    1.0000 </r>
       <r>  -35.8983    1.0000 </r>
       <r>  -35.8975    1.0000 </r>
       <r>  -35.8959    1.0000 </r>
       <r>  -35.8956    1.0000 </r>
       <r>  -35.8951    1.0000 </r>
       <r>  -35.8948    1.0000 </r>
       <r>  -35.8866    1.0000 </r>
       <r>  -35.8861    1.0000 </r>
       <r>  -35.8860    1.0000 </r>
       <r>  -35.8858    1.0000 </r>
       <r>  -35.8856    1.0000 </r>
       <r>  -35.8853    1.0000 </r>
       <r>  -35.8853    1.0000 </r>
       <r>  -35.8849    1.0000 </r>
       <r>  -35.8754    1.0000 </r>
       <r>  -35.8753    1.0000 </r>
       <r>  -35.8752    1.0000 </r>
       <r>  -35.8750    1.0000 </r>
       <r>  -35.8747    1.0000 </r>
       <r>  -35.8746    1.0000 </r>
       <r>  -35.8745    1.0000 </r>
       <r>  -35.8743    1.0000 </r>
       <r>  -35.8708    1.0000 </r>
       <r>  -35.8707    1.0000 </r>
       <r>  -35.8702    1.0000 </r>
       <r>  -35.8701    1.0000 </r>
       <r>  -35.8689    1.0000 </r>
       <r>  -35.8683    1.0000 </r>
       <r>  -35.8662    1.0000 </r>
       <r>  -35.8657    1.0000 </r>
       <r>  -35.8557    1.0000 </r>
       <r>  -35.8530    1.0000 </r>
       <r>  -35.8527    1.0000 </r>
       <r>  -35.8511    1.0000 </r>
       <r>  -35.8509    1.0000 </r>
       <r>  -35.8501    1.0000 </r>
       <r>  -35.8499    1.0000 </r>
       <r>  -35.8491    1.0000 </r>
       <r>  -35.8490    1.0000 </r>
       <r>  -35.8484    1.0000 </r>
       <r>  -35.8460    1.0000 </r>
       <r>  -35.8457    1.0000 </r>
       <r>  -35.8443    1.0000 </r>
       <r>  -35.8441    1.0000 </r>
       <r>  -35.8434    1.0000 </r>
       <r>  -35.8432    1.0000 </r>
       <r>  -35.8425    1.0000 </r>
       <r>  -35.8423    1.0000 </r>
       <r>   -6.2692    1.0000 </r>
       <r>   -5.3049    1.0000 </r>
       <r>   -5.3038    1.0000 </r>
       <r>   -5.0020    1.0000 </r>
       <r>   -4.3593    1.0000 </r>
       <r>   -4.3582    1.0000 </r>
       <r>   -4.1313    1.0000 </r>
       <r>   -4.1304    1.0000 </r>
       <r>   -3.4399    1.0000 </r>
       <r>   -3.4388    1.0000 </r>
       <r>   -3.2685    1.0000 </r>
       <r>   -3.2675    1.0000 </r>
       <r>   -2.5522    1.0000 </r>
       <r>   -2.4220    1.0000 </r>
       <r>   -2.4210    1.0000 </r>
       <r>   -1.9448    1.0000 </r>
       <r>   -1.5987    1.0000 </r>
       <r>   -1.2898    1.0000 </r>
       <r>   -1.2487    1.0000 </r>
       <r>   -1.0286    1.0000 </r>
       <r>   -0.6360    1.0000 </r>
       <r>   -0.6349    1.0000 </r>
       <r>   -0.4280    1.0000 </r>
       <r>   -0.2615    1.0000 </r>
       <r>   -0.1580    1.0000 </r>
       <r>   -0.1562    1.0000 </r>
       <r>    0.1945    1.0000 </r>
       <r>    0.1956    1.0000 </r>
       <r>    0.5571    1.0000 </r>
       <r>    0.8631    1.0000 </r>
       <r>    0.8823    1.0000 </r>
       <r>    0.8839    1.0000 </r>
       <r>    1.0193    1.0000 </r>
       <r>    1.0193    1.0000 </r>
       <r>    1.2598    1.0000 </r>
       <r>    1.4912    1.0000 </r>
       <r>    1.7500    1.0000 </r>
       <r>    1.7502    1.0000 </r>
       <r>    1.8117    1.0000 </r>
       <r>    1.8133    1.0000 </r>
       <r>    1.8725    1.0000 </r>
       <r>    2.6491    1.0000 </r>
       <r>    2.6501    1.0000 </r>
       <r>    2.7576    1.0000 </r>
       <r>    3.1560    1.0000 </r>
       <r>    3.1905    1.0000 </r>
       <r>    3.2875    1.0000 </r>
       <r>    3.2885    1.0000 </r>
       <r>    3.4300    1.0000 </r>
       <r>    3.4311    1.0000 </r>
       <r>    3.7115    1.0000 </r>
       <r>    3.7117    1.0000 </r>
       <r>    3.8575    1.0000 </r>
       <r>    3.8585    1.0000 </r>
       <r>    4.0440    1.0000 </r>
       <r>    4.0443    1.0000 </r>
       <r>    4.1155    1.0000 </r>
       <r>    4.1171    1.0000 </r>
       <r>    4.5912    1.0000 </r>
       <r>    4.5912    1.0000 </r>
       <r>    4.6805    1.0000 </r>
       <r>    4.9385    1.0000 </r>
       <r>    4.9388    1.0000 </r>
       <r>    4.9988    1.0000 </r>
       <r>    5.0004    1.0000 </r>
       <r>    5.2271    1.0000 </r>
       <r>    5.6339    1.0169 </r>
       <r>    5.6413    1.0184 </r>
       <r>    5.6429    1.0188 </r>
       <r>    5.7436    1.0353 </r>
       <r>    5.7450    1.0352 </r>
       <r>    5.9860    0.4826 </r>
       <r>    6.0684    0.1691 </r>
       <r>    6.3463   -0.0136 </r>
       <r>    6.6282    0.0000 </r>
       <r>    6.9109    0.0000 </r>
       <r>    7.2508    0.0000 </r>
       <r>    7.2513    0.0000 </r>
       <r>    7.7696    0.0000 </r>
       <r>    8.6249    0.0000 </r>
       <r>    8.6681    0.0000 </r>
       <r>    8.6701    0.0000 </r>
       <r>    9.0034    0.0000 </r>
       <r>    9.1945    0.0000 </r>
       <r>    9.1967    0.0000 </r>
       <r>    9.5788    0.0000 </r>
       <r>    9.5798    0.0000 </r>
       <r>    9.7534    0.0000 </r>
       <r>    9.7552    0.0000 </r>
       <r>    9.9904    0.0000 </r>
       <r>    9.9919    0.0000 </r>
       <r>   10.1823    0.0000 </r>
       <r>   10.3326    0.0000 </r>
       <r>   11.0690    0.0000 </r>
       <r>   11.0694    0.0000 </r>
       <r>   11.1854    0.0000 </r>
       <r>   11.1861    0.0000 </r>
       <r>   11.2710    0.0000 </r>
       <r>   11.6781    0.0000 </r>
       <r>   11.6784    0.0000 </r>
       <r>   11.7070    0.0000 </r>
       <r>   11.9307    0.0000 </r>
       <r>   11.9322    0.0000 </r>
       <r>   12.1137    0.0000 </r>
       <r>   12.1140    0.0000 </r>
       <r>   12.1336    0.0000 </r>
      </set>
      <set comment="kpoint 7">
       <r>  -35.9053    1.0000 </r>
       <r>  -35.9044    1.0000 </r>
       <r>  -35.9034    1.0000 </r>
       <r>  -35.9026    1.0000 </r>
       <r>  -35.9024    1.0000 </r>
       <r>  -35.9015    1.0000 </r>
       <r>  -35.8987    1.0000 </r>
       <r>  -35.8979    1.0000 </r>
       <r>  -35.8978    1.0000 </r>
       <r>  -35.8970    1.0000 </r>
       <r>  -35.8937    1.0000 </r>
       <r>  -35.8929    1.0000 </r>
       <r>  -35.8839    1.0000 </r>
       <r>  -35.8832    1.0000 </r>
       <r>  -35.8826    1.0000 </r>
       <r>  -35.8819    1.0000 </r>
       <r>  -35.8814    1.0000 </r>
       <r>  -35.8807    1.0000 </r>
       <r>  -35.8793    1.0000 </r>
       <r>  -35.8786    1.0000 </r>
       <r>  -35.8786    1.0000 </r>
       <r>  -35.8779    1.0000 </r>
       <r>  -35.8778    1.0000 </r>
       <r>  -35.8772    1.0000 </r>
       <r>  -35.8761    1.0000 </r>
       <r>  -35.8759    1.0000 </r>
       <r>  -35.8755    1.0000 </r>
       <r>  -35.8752    1.0000 </r>
       <r>  -35.8733    1.0000 </r>
       <r>  -35.8727    1.0000 </r>
       <r>  -35.8709    1.0000 </r>
       <r>  -35.8703    1.0000 </r>
       <r>  -35.8690    1.0000 </r>
       <r>  -35.8684    1.0000 </r>
       <r>  -35.8674    1.0000 </r>
       <r>  -35.8668    1.0000 </r>
       <r>  -35.8550    1.0000 </r>
       <r>  -35.8540    1.0000 </r>
       <r>  -35.8531    1.0000 </r>
       <r>  -35.8511    1.0000 </r>
       <r>  -35.8503    1.0000 </r>
       <r>  -35.8498    1.0000 </r>
       <r>  -35.8496    1.0000 </r>
       <r>  -35.8494    1.0000 </r>
       <r>  -35.8492    1.0000 </r>
       <r>  -35.8478    1.0000 </r>
       <r>  -35.8469    1.0000 </r>
       <r>  -35.8461    1.0000 </r>
       <r>  -35.8443    1.0000 </r>
       <r>  -35.8435    1.0000 </r>
       <r>  -35.8431    1.0000 </r>
       <r>  -35.8429    1.0000 </r>
       <r>  -35.8427    1.0000 </r>
       <r>  -35.8426    1.0000 </r>
       <r>   -6.0533    1.0000 </r>
       <r>   -5.7310    1.0000 </r>
       <r>   -5.4107    1.0000 </r>
[...]
       <r>   10.9214    0.0000 </r>
       <r>   11.2247    0.0000 </r>
       <r>   11.2247    0.0000 </r>
       <r>   11.4185    0.0000 </r>
       <r>   11.4529    0.0000 </r>
       <r>   11.4530    0.0000 </r>
       <r>   11.5337    0.0000 </r>
       <r>   11.5647    0.0000 </r>
       <r>   11.5648    0.0000 </r>
       <r>   11.9877    0.0000 </r>
       <r>   11.9877    0.0000 </r>
       <r>   12.0337    0.0000 </r>
       <r>   12.0440    0.0000 </r>
       <r>   12.0441    0.0000 </r>
       <r>   12.0456    0.0000 </r>
       <r>   12.1395    0.0000 </r>
       <r>   12.3596    0.0000 </r>
       <r>   12.3597    0.0000 </r>
      </set>
     </set>
    </set>
   </array>
  </eigenvalues>
  <separator name="orbital magnetization" >
   <v name="MAGDIPOLOUT">      0.00000000      0.00000000      0.00000000</v>
  </separator>
  <dos>
   <i name="efermi">      5.98184114 </i>
   <total>
    <array>
     <dimension dim="1">gridpoints</dimension>
     <dimension dim="2">spin</dimension>
     <field>energy</field>
     <field>total</field>
     <field>integrated</field>
     <set>
      <set comment="spin 1">
       <r>   -38.3466     0.0000     0.0000 </r>
       <r>   -38.1676     0.0000     0.0000 </r>
       <r>   -37.9887     0.0000     0.0000 </r>
       <r>   -37.8097     0.0000     0.0000 </r>
       <r>   -37.6307     0.0000     0.0000 </r>
       <r>   -37.4517     0.0000     0.0000 </r>
       <r>   -37.2727     0.0000     0.0000 </r>
       <r>   -37.0938     0.0000     0.0000 </r>
       <r>   -36.9148     0.0000     0.0000 </r>
       <r>   -36.7358     0.0000     0.0000 </r>
       <r>   -36.5568    -0.0052    -0.0009 </r>
       <r>   -36.3779    -0.6613    -0.1193 </r>
       <r>   -36.1989   -12.3410    -2.3280 </r>
       <r>   -36.0199    32.0305     3.4046 </r>
       <r>   -35.8409   359.5138    67.7490 </r>
       <r>   -35.6620   241.1061   110.9011 </r>
       <r>   -35.4830   -10.2780   109.0616 </r>
       <r>   -35.3040    -5.7804   108.0271 </r>
       <r>   -35.1250    -0.1506   108.0001 </r>
       <r>   -34.9461    -0.0007   108.0000 </r>
       <r>   -34.7671     0.0000   108.0000 </r>
       <r>   -34.5881     0.0000   108.0000 </r>
       <r>   -34.4091     0.0000   108.0000 </r>
       <r>   -34.2302     0.0000   108.0000 </r>
       <r>   -34.0512     0.0000   108.0000 </r>
       <r>   -33.8722     0.0000   108.0000 </r>
       <r>   -33.6932     0.0000   108.0000 </r>
       <r>   -33.5143     0.0000   108.0000 </r>
       <r>   -33.3353     0.0000   108.0000 </r>
       <r>   -33.1563     0.0000   108.0000 </r>
       <r>   -32.9773     0.0000   108.0000 </r>
       <r>   -32.7984     0.0000   108.0000 </r>
       <r>   -32.6194     0.0000   108.0000 </r>
       <r>   -32.4404     0.0000   108.0000 </r>
       <r>   -32.2614     0.0000   108.0000 </r>
       <r>   -32.0824     0.0000   108.0000 </r>
       <r>   -31.9035     0.0000   108.0000 </r>
       <r>   -31.7245     0.0000   108.0000 </r>
       <r>   -31.5455     0.0000   108.0000 </r>
       <r>   -31.3665     0.0000   108.0000 </r>
       <r>   -31.1876     0.0000   108.0000 </r>
       <r>   -31.0086     0.0000   108.0000 </r>
       <r>   -30.8296     0.0000   108.0000 </r>
       <r>   -30.6506     0.0000   108.0000 </r>
       <r>   -30.4717     0.0000   108.0000 </r>
       <r>   -30.2927     0.0000   108.0000 </r>
       <r>   -30.1137     0.0000   108.0000 </r>
       <r>   -29.9347     0.0000   108.0000 </r>
       <r>   -29.7558     0.0000   108.0000 </r>
       <r>   -29.5768     0.0000   108.0000 </r>
       <r>   -29.3978     0.0000   108.0000 </r>
       <r>   -29.2188     0.0000   108.0000 </r>
       <r>   -29.0399     0.0000   108.0000 </r>
       <r>   -28.8609     0.0000   108.0000 </r>
       <r>   -28.6819     0.0000   108.0000 </r>
       <r>   -28.5029     0.0000   108.0000 </r>
       <r>   -28.3240     0.0000   108.0000 </r>
       <r>   -28.1450     0.0000   108.0000 </r>
       <r>   -27.9660     0.0000   108.0000 </r>
       <r>   -27.7870     0.0000   108.0000 </r>
       <r>   -27.6080     0.0000   108.0000 </r>
       <r>   -27.4291     0.0000   108.0000 </r>
       <r>   -27.2501     0.0000   108.0000 </r>
       <r>   -27.0711     0.0000   108.0000 </r>
       <r>   -26.8921     0.0000   108.0000 </r>
       <r>   -26.7132     0.0000   108.0000 </r>
       <r>   -26.5342     0.0000   108.0000 </r>
       <r>   -26.3552     0.0000   108.0000 </r>
       <r>   -26.1762     0.0000   108.0000 </r>
       <r>   -25.9973     0.0000   108.0000 </r>
       <r>   -25.8183     0.0000   108.0000 </r>
       <r>   -25.6393     0.0000   108.0000 </r>
       <r>   -25.4603     0.0000   108.0000 </r>
       <r>   -25.2814     0.0000   108.0000 </r>
       <r>   -25.1024     0.0000   108.0000 </r>
       <r>   -24.9234     0.0000   108.0000 </r>
       <r>   -24.7444     0.0000   108.0000 </r>
       <r>   -24.5655     0.0000   108.0000 </r>
       <r>   -24.3865     0.0000   108.0000 </r>
       <r>   -24.2075     0.0000   108.0000 </r>
       <r>   -24.0285     0.0000   108.0000 </r>
       <r>   -23.8496     0.0000   108.0000 </r>
       <r>   -23.6706     0.0000   108.0000 </r>
       <r>   -23.4916     0.0000   108.0000 </r>
       <r>   -23.3126     0.0000   108.0000 </r>
       <r>   -23.1337     0.0000   108.0000 </r>
       <r>   -22.9547     0.0000   108.0000 </r>
       <r>   -22.7757     0.0000   108.0000 </r>
       <r>   -22.5967     0.0000   108.0000 </r>
       <r>   -22.4177     0.0000   108.0000 </r>
       <r>   -22.2388     0.0000   108.0000 </r>
       <r>   -22.0598     0.0000   108.0000 </r>
       <r>   -21.8808     0.0000   108.0000 </r>
       <r>   -21.7018     0.0000   108.0000 </r>
       <r>   -21.5229     0.0000   108.0000 </r>
       <r>   -21.3439     0.0000   108.0000 </r>
       <r>   -21.1649     0.0000   108.0000 </r>
       <r>   -20.9859     0.0000   108.0000 </r>
       <r>   -20.8070     0.0000   108.0000 </r>
       <r>   -20.6280     0.0000   108.0000 </r>
       <r>   -20.4490     0.0000   108.0000 </r>
       <r>   -20.2700     0.0000   108.0000 </r>
       <r>   -20.0911     0.0000   108.0000 </r>
       <r>   -19.9121     0.0000   108.0000 </r>
       <r>   -19.7331     0.0000   108.0000 </r>
       <r>   -19.5541     0.0000   108.0000 </r>
       <r>   -19.3752     0.0000   108.0000 </r>
       <r>   -19.1962     0.0000   108.0000 </r>
       <r>   -19.0172     0.0000   108.0000 </r>
       <r>   -18.8382     0.0000   108.0000 </r>
       <r>   -18.6593     0.0000   108.0000 </r>
       <r>   -18.4803     0.0000   108.0000 </r>
       <r>   -18.3013     0.0000   108.0000 </r>
       <r>   -18.1223     0.0000   108.0000 </r>
       <r>   -17.9433     0.0000   108.0000 </r>
       <r>   -17.7644     0.0000   108.0000 </r>
       <r>   -17.5854     0.0000   108.0000 </r>
       <r>   -17.4064     0.0000   108.0000 </r>
       <r>   -17.2274     0.0000   108.0000 </r>
       <r>   -17.0485     0.0000   108.0000 </r>
       <r>   -16.8695     0.0000   108.0000 </r>
       <r>   -16.6905     0.0000   108.0000 </r>
       <r>   -16.5115     0.0000   108.0000 </r>
       <r>   -16.3326     0.0000   108.0000 </r>
       <r>   -16.1536     0.0000   108.0000 </r>
       <r>   -15.9746     0.0000   108.0000 </r>
       <r>   -15.7956     0.0000   108.0000 </r>
       <r>   -15.6167     0.0000   108.0000 </r>
       <r>   -15.4377     0.0000   108.0000 </r>
       <r>   -15.2587     0.0000   108.0000 </r>
       <r>   -15.0797     0.0000   108.0000 </r>
       <r>   -14.9008     0.0000   108.0000 </r>
       <r>   -14.7218     0.0000   108.0000 </r>
       <r>   -14.5428     0.0000   108.0000 </r>
       <r>   -14.3638     0.0000   108.0000 </r>
       <r>   -14.1849     0.0000   108.0000 </r>
       <r>   -14.0059     0.0000   108.0000 </r>
       <r>   -13.8269     0.0000   108.0000 </r>
       <r>   -13.6479     0.0000   108.0000 </r>
       <r>   -13.4690     0.0000   108.0000 </r>
       <r>   -13.2900     0.0000   108.0000 </r>
       <r>   -13.1110     0.0000   108.0000 </r>
       <r>   -12.9320     0.0000   108.0000 </r>
       <r>   -12.7530     0.0000   108.0000 </r>
       <r>   -12.5741     0.0000   108.0000 </r>
       <r>   -12.3951     0.0000   108.0000 </r>
       <r>   -12.2161     0.0000   108.0000 </r>
       <r>   -12.0371     0.0000   108.0000 </r>
       <r>   -11.8582     0.0000   108.0000 </r>
       <r>   -11.6792     0.0000   108.0000 </r>
       <r>   -11.5002     0.0000   108.0000 </r>
       <r>   -11.3212     0.0000   108.0000 </r>
       <r>   -11.1423     0.0000   108.0000 </r>
       <r>   -10.9633     0.0000   108.0000 </r>
       <r>   -10.7843     0.0000   108.0000 </r>
       <r>   -10.6053     0.0000   108.0000 </r>
       <r>   -10.4264     0.0000   108.0000 </r>
       <r>   -10.2474     0.0000   108.0000 </r>
       <r>   -10.0684     0.0000   108.0000 </r>
       <r>    -9.8894     0.0000   108.0000 </r>
       <r>    -9.7105     0.0000   108.0000 </r>
       <r>    -9.5315     0.0000   108.0000 </r>
       <r>    -9.3525     0.0000   108.0000 </r>
       <r>    -9.1735     0.0000   108.0000 </r>
       <r>    -8.9946     0.0000   108.0000 </r>
       <r>    -8.8156     0.0000   108.0000 </r>
       <r>    -8.6366     0.0000   108.0000 </r>
       <r>    -8.4576     0.0000   108.0000 </r>
       <r>    -8.2787     0.0000   108.0000 </r>
       <r>    -8.0997     0.0000   108.0000 </r>
       <r>    -7.9207     0.0000   108.0000 </r>
       <r>    -7.7417     0.0000   108.0000 </r>
       <r>    -7.5627     0.0000   108.0000 </r>
       <r>    -7.3838     0.0000   108.0000 </r>
       <r>    -7.2048     0.0000   108.0000 </r>
       <r>    -7.0258     0.0000   108.0000 </r>
       <r>    -6.8468    -0.0017   107.9997 </r>
       <r>    -6.6679    -0.0289   107.9945 </r>
       <r>    -6.4889     0.0089   107.9961 </r>
       <r>    -6.3099     0.8675   108.1514 </r>
       <r>    -6.1309     2.2721   108.5580 </r>
       <r>    -5.9520     3.2794   109.1450 </r>
       <r>    -5.7730     3.9743   109.8563 </r>
       <r>    -5.5940     4.8023   110.7158 </r>
       <r>    -5.4150     5.2705   111.6591 </r>
       <r>    -5.2361     6.5629   112.8337 </r>
       <r>    -5.0571     7.1208   114.1081 </r>
       <r>    -4.8781     8.0156   115.5427 </r>
       <r>    -4.6991     8.1635   117.0038 </r>
       <r>    -4.5202     7.4261   118.3329 </r>
       <r>    -4.3412     8.2156   119.8033 </r>
       <r>    -4.1622     8.3824   121.3035 </r>
       <r>    -3.9832     7.3171   122.6131 </r>
       <r>    -3.8043     8.1689   124.0751 </r>
       <r>    -3.6253     8.7370   125.6389 </r>
       <r>    -3.4463     7.6815   127.0137 </r>
       <r>    -3.2673     7.9142   128.4301 </r>
       <r>    -3.0883     8.4168   129.9365 </r>
       <r>    -2.9094     8.9252   131.5339 </r>
       <r>    -2.7304     8.3372   133.0261 </r>
       <r>    -2.5514     7.9071   134.4413 </r>
       <r>    -2.3724     9.8406   136.2025 </r>
       <r>    -2.1935     9.7390   137.9455 </r>
       <r>    -2.0145     7.0316   139.2040 </r>
       <r>    -1.8355     6.5080   140.3688 </r>
       <r>    -1.6565     7.9975   141.8002 </r>
       <r>    -1.4776     7.8382   143.2030 </r>
       <r>    -1.2986     6.3585   144.3410 </r>
       <r>    -1.1196     7.9531   145.7644 </r>
       <r>    -0.9406     9.9973   147.5537 </r>
       <r>    -0.7617    10.3425   149.4048 </r>
       <r>    -0.5827    10.7418   151.3273 </r>
       <r>    -0.4037    11.4476   153.3761 </r>
       <r>    -0.2247    11.1656   155.3745 </r>
       <r>    -0.0458    11.0278   157.3482 </r>
       <r>     0.1332    10.3457   159.1998 </r>
       <r>     0.3122    11.0505   161.1776 </r>
       <r>     0.4912    10.9749   163.1419 </r>
       <r>     0.6701    12.2545   165.3351 </r>
       <r>     0.8491    11.8499   167.4559 </r>
       <r>     1.0281    12.8464   169.7552 </r>
       <r>     1.2071    13.8678   172.2371 </r>
       <r>     1.3860    12.2604   174.4315 </r>
       <r>     1.5650    13.6378   176.8723 </r>
       <r>     1.7440    16.9212   179.9008 </r>
       <r>     1.9230    13.2649   182.2749 </r>
       <r>     2.1020    12.8249   184.5702 </r>
       <r>     2.2809    18.0953   187.8089 </r>
       <r>     2.4599    16.1925   190.7069 </r>
       <r>     2.6389    17.5764   193.8527 </r>
       <r>     2.8179    17.1296   196.9185 </r>
       <r>     2.9968    17.3641   200.0262 </r>
       <r>     3.1758    18.8280   203.3960 </r>
       <r>     3.3548    19.1140   206.8169 </r>
       <r>     3.5338    19.1980   210.2529 </r>
       <r>     3.7127    19.3507   213.7162 </r>
       <r>     3.8917    22.1094   217.6733 </r>
       <r>     4.0707    22.4757   221.6959 </r>
       <r>     4.2497    22.2957   225.6863 </r>
       <r>     4.4286    17.8217   228.8759 </r>
       <r>     4.6076    14.7387   231.5138 </r>
       <r>     4.7866    17.2768   234.6059 </r>
       <r>     4.9656    16.2817   237.5200 </r>
       <r>     5.1445    14.0466   240.0340 </r>
       <r>     5.3235    16.6453   243.0131 </r>
       <r>     5.5025    14.3201   245.5760 </r>
       <r>     5.6815    12.3456   247.7856 </r>
       <r>     5.8604    13.5654   250.2135 </r>
       <r>     6.0394    14.2426   252.7625 </r>
       <r>     6.2184    10.9247   254.7178 </r>
       <r>     6.3974    10.8393   256.6578 </r>
       <r>     6.5764     9.6382   258.3828 </r>
       <r>     6.7553     6.2915   259.5088 </r>
       <r>     6.9343     6.0202   260.5863 </r>
       <r>     7.1133     5.2905   261.5332 </r>
       <r>     7.2923     3.9315   262.2368 </r>
       <r>     7.4712     5.3393   263.1924 </r>
       <r>     7.6502     5.6095   264.1964 </r>
       <r>     7.8292     5.1788   265.1232 </r>
       <r>     8.0082     5.9063   266.1803 </r>
       <r>     8.1871     6.4736   267.3390 </r>
       <r>     8.3661     6.8875   268.5717 </r>
       <r>     8.5451     6.8474   269.7972 </r>
       <r>     8.7241     7.4958   271.1387 </r>
       <r>     8.9030     7.9687   272.5649 </r>
       <r>     9.0820     8.6047   274.1050 </r>
       <r>     9.2610     7.3100   275.4133 </r>
       <r>     9.4400     6.8135   276.6327 </r>
       <r>     9.6189     8.2287   278.1055 </r>
       <r>     9.7979     9.0609   279.7272 </r>
       <r>     9.9769     8.0526   281.1684 </r>
       <r>    10.1559     8.6122   282.7097 </r>
       <r>    10.3348     8.2372   284.1840 </r>
       <r>    10.5138     9.1749   285.8261 </r>
       <r>    10.6928    10.5754   287.7188 </r>
       <r>    10.8718     9.2879   289.3811 </r>
       <r>    11.0507    13.3431   291.7692 </r>
       <r>    11.2297    14.4317   294.3522 </r>
       <r>    11.4087    15.1215   297.0585 </r>
       <r>    11.5877    17.7245   300.2308 </r>
       <r>    11.7667    20.5168   303.9028 </r>
       <r>    11.9456    19.7429   307.4363 </r>
       <r>    12.1246    23.5192   311.6457 </r>
       <r>    12.3036    20.5322   315.3205 </r>
       <r>    12.4826    15.5443   318.1025 </r>
       <r>    12.6615     9.1709   319.7439 </r>
       <r>    12.8405     1.6526   320.0397 </r>
       <r>    13.0195    -0.1852   320.0065 </r>
       <r>    13.1985    -0.0310   320.0010 </r>
       <r>    13.3774    -0.0052   320.0001 </r>
       <r>    13.5564    -0.0003   320.0000 </r>
       <r>    13.7354     0.0000   320.0000 </r>
       <r>    13.9144     0.0000   320.0000 </r>
       <r>    14.0933     0.0000   320.0000 </r>
       <r>    14.2723     0.0000   320.0000 </r>
       <r>    14.4513     0.0000   320.0000 </r>
       <r>    14.6303     0.0000   320.0000 </r>
       <r>    14.8092     0.0000   320.0000 </r>
       <r>    14.9882     0.0000   320.0000 </r>
       <r>    15.1672     0.0000   320.0000 </r>
       <r>    15.3462     0.0000   320.0000 </r>
      </set>
     </set>
    </array>
   </total>
  </dos>
 </calculation>
 <structure name="finalpos" >
  <crystal>
   <varray name="basis" >
    <v>       9.22550730       0.00000000       0.00000000 </v>
    <v>      -4.61275365       7.98952369       0.00000000 </v>
    <v>       0.00000000       0.00000000       7.05401601 </v>
   </varray>
   <i name="volume">    519.93324420 </i>
   <varray name="rec_basis" >
    <v>       0.10839512       0.06258195       0.00000000 </v>
    <v>       0.00000000       0.12516391       0.00000000 </v>
    <v>       0.00000000       0.00000000       0.14176322 </v>
   </varray>
  </crystal>
  <varray name="positions" >
   <v>       0.00086108       0.00000000       0.00086108 </v>
   <v>       0.33333333       0.00000000       0.00000000 </v>
   <v>       0.66666667       0.00000000       0.00000000 </v>
   <v>       0.00000000       0.33333333       0.00000000 </v>
   <v>       0.33333333       0.33333333       0.00000000 </v>
   <v>       0.66666667       0.33333333       0.00000000 </v>
   <v>       0.00000000       0.66666667       0.00000000 </v>
   <v>       0.33333333       0.66666667       0.00000000 </v>
   <v>       0.66666667       0.66666667       0.00000000 </v>
   <v>       0.00000000       0.00000000       0.50000000 </v>
   <v>       0.33333333       0.00000000       0.50000000 </v>
   <v>       0.66666667       0.00000000       0.50000000 </v>
   <v>       0.00000000       0.33333333       0.50000000 </v>
   <v>       0.33333333       0.33333333       0.50000000 </v>
   <v>       0.66666667       0.33333333       0.50000000 </v>
   <v>       0.00000000       0.66666667       0.50000000 </v>
   <v>       0.33333333       0.66666667       0.50000000 </v>
   <v>       0.66666667       0.66666667       0.50000000 </v>
   <v>       0.11111111       0.22222222       0.25000000 </v>
   <v>       0.44444444       0.22222222       0.25000000 </v>
   <v>       0.77777778       0.22222222       0.25000000 </v>
   <v>       0.11111111       0.55555556       0.25000000 </v>
   <v>       0.44444444       0.55555556       0.25000000 </v>
   <v>       0.77777778       0.55555556       0.25000000 </v>
   <v>       0.11111111       0.88888889       0.25000000 </v>
   <v>       0.44444444       0.88888889       0.25000000 </v>
   <v>       0.77777778       0.88888889       0.25000000 </v>
   <v>       0.11111111       0.22222222       0.75000000 </v>
   <v>       0.44444444       0.22222222       0.75000000 </v>
   <v>       0.77777778       0.22222222       0.75000000 </v>
   <v>       0.11111111       0.55555556       0.75000000 </v>
   <v>       0.44444444       0.55555556       0.75000000 </v>
   <v>       0.77777778       0.55555556       0.75000000 </v>
   <v>       0.11111111       0.88888889       0.75000000 </v>
   <v>       0.44444444       0.88888889       0.75000000 </v>
   <v>       0.77777778       0.88888889       0.75000000 </v>
   <v>       0.22222222       0.11111111       0.25000000 </v>
   <v>       0.55555556       0.11111111       0.25000000 </v>
   <v>       0.88888889       0.11111111       0.25000000 </v>
   <v>       0.22222222       0.44444444       0.25000000 </v>
   <v>       0.55555556       0.44444444       0.25000000 </v>
   <v>       0.88888889       0.44444444       0.25000000 </v>
   <v>       0.22222222       0.77777778       0.25000000 </v>
   <v>       0.55555556       0.77777778       0.25000000 </v>
   <v>       0.88888889       0.77777778       0.25000000 </v>
   <v>       0.22222222       0.11111111       0.75000000 </v>
   <v>       0.55555556       0.11111111       0.75000000 </v>
   <v>       0.88888889       0.11111111       0.75000000 </v>
   <v>       0.22222222       0.44444444       0.75000000 </v>
   <v>       0.55555556       0.44444444       0.75000000 </v>
   <v>       0.88888889       0.44444444       0.75000000 </v>
   <v>       0.22222222       0.77777778       0.75000000 </v>
   <v>       0.55555556       0.77777778       0.75000000 </v>
   <v>       0.88888889       0.77777778       0.75000000 </v>
  </varray>
 </structure>
</modeling>
