# epsilon and Z* of atoms 1 5
   2.48825992   0.00000000   0.00000000   0.00000000   2.48825992   0.00000000   0.00000000   0.00000000   2.48825992
   1.10127737   0.00000000   0.00000000   0.00000000   1.10127737   0.00000000   0.00000000   0.00000000   1.10127737
  -1.10127737   0.00000000   0.00000000   0.00000000  -1.10127737   0.00000000   0.00000000   0.00000000  -1.10127737
