#

2 atoms
1 atom types

0.0 3.8402969286241397 xlo xhi
0.0 3.32579469826386 ylo yhi
0.0 3.1355893119688574 zlo zhi

1.9201484643120703 1.9201484643120703 1.1085982327546207 xy xz yz


Atom Type Labels

1 Si


Atoms

1 Si 0.0 0.0 0.0
2 Si 1.9201484643120703 1.1085982327546202 0.7838973279922143
