# epsilon and Z* of atoms 1 9
   7.10729047    0.00000000    0.00000000    0.00000000    7.10729047    0.00000000    0.00000000    0.00000000    6.41993410
  -5.54435990    0.00000000    0.00000000    0.00000000   -1.11960146   -0.00000000    0.00000000    0.00000000   -2.89515567
   6.66396136    0.00000000    0.00000000    0.00000000    6.66396136   -0.00000000    0.00000000    0.00000000    5.79031133
