# epsilon and Z* of atoms 1 5
   4.86254650    0.00000000    0.00000000    0.00000000    4.86254650    0.00000000    0.00000000    0.00000000    4.88556982
  -2.04586183    0.74685500    0.00000000    0.74685500   -2.04586183    0.00000000    0.00000000    0.00000000   -2.24229768
   4.09172366   -0.47201182    0.00000000   -0.47201182    4.09172366    0.00000000    0.00000000    0.00000000    4.48459536
