72
5

1
  0.0100000000000000   0.0000000000000000   0.0000000000000000
  -0.1326124400    0.0953662100    0.0000000000
   0.0036882200   -0.0007426000    0.0000000000
  -0.0010950400   -0.0007478400    0.0000000000
   0.0011748500   -0.0005238100    0.0000000000
  -0.0030307500    0.0017422900    0.0002006400
   0.0029236500   -0.0005257100    0.0001426200
  -0.0007408600   -0.0005351500    0.0004557500
   0.0009579300   -0.0005932600   -0.0004259000
  -0.0030307500    0.0017422900   -0.0002006400
   0.0029236500   -0.0005257100   -0.0001426200
  -0.0007408600   -0.0005351500   -0.0004557500
   0.0009579300   -0.0005932600    0.0004259000
   0.0026429800   -0.0024865500    0.0000000000
  -0.0013344800    0.0021242100    0.0000000000
   0.0024342900    0.0021422800    0.0000000000
   0.0198216800   -0.0234958800    0.0000000000
   0.0015648900   -0.0016923100    0.0006571700
  -0.0013977000    0.0008474300   -0.0003907900
   0.0004888900    0.0008569300    0.0006299600
  -0.0002893900   -0.0001505500   -0.0017444300
   0.0015648900   -0.0016923100   -0.0006571700
  -0.0013977000    0.0008474300    0.0003907900
   0.0004888900    0.0008569300   -0.0006299600
  -0.0002893900   -0.0001505500    0.0017444300
  -0.0033301100   -0.0053355000   -0.0044255600
   0.0025858600    0.0017996300   -0.0000269400
  -0.0033244600    0.0007906900   -0.0005764100
   0.0025828700    0.0005046700    0.0015385400
  -0.0033301100   -0.0053355000    0.0044255600
   0.0025858600    0.0017996300    0.0000269400
  -0.0033244600    0.0007906900    0.0005764100
   0.0025828700    0.0005046700   -0.0015385400
  -0.0006034200   -0.0001042800    0.0000000000
   0.0006364100    0.0002186300    0.0000000000
  -0.0006038300   -0.0002628000    0.0000000000
   0.0006365300    0.0001982700    0.0000000000
   0.0096555600   -0.0008263700   -0.0102470800
   0.0095446900    0.0052993500    0.0086147200
  -0.0002657000   -0.0005126000   -0.0001697500
  -0.0002524700   -0.0017946000    0.0019372200
   0.0096555600   -0.0008263700    0.0102470800
   0.0095446900    0.0052993500   -0.0086147200
  -0.0002657000   -0.0005126000    0.0001697500
  -0.0002524700   -0.0017946000   -0.0019372200
  -0.0000253400    0.0002607300    0.0000000000
  -0.0000144900    0.0001094800    0.0000000000
  -0.0000893700   -0.0002009000    0.0000000000
  -0.0000840300   -0.0002186200    0.0000000000
   0.0408375800   -0.0330180700    0.0000000000
  -0.0075537000   -0.0047112200    0.0000000000
   0.0019085800   -0.0025442000    0.0000000000
  -0.0079595000    0.0068859300    0.0000000000
   0.0025732200    0.0011714000   -0.0059153500
  -0.0028951100   -0.0024238600    0.0042270700
   0.0006218700    0.0001607100    0.0002341300
  -0.0010374800    0.0005469100    0.0015964000
   0.0025732200    0.0011714000    0.0059153500
  -0.0028951100   -0.0024238600   -0.0042270700
   0.0006218700    0.0001607100   -0.0002341300
  -0.0010374800    0.0005469100   -0.0015964000
   0.0052134800    0.0023510900   -0.0009303800
  -0.0028695500    0.0010815200   -0.0000532600
   0.0272866500   -0.0171781600    0.0174488200
  -0.0076377100   -0.0046544900    0.0007454800
   0.0052134800    0.0023510900    0.0009303800
  -0.0028695500    0.0010815200    0.0000532600
   0.0272866500   -0.0171781600   -0.0174488200
  -0.0076377100   -0.0046544900   -0.0007454800
   0.0018534600    0.0001923200    0.0000000000
  -0.0017352900    0.0009037800    0.0000000000
   0.0020857800   -0.0006094000    0.0000000000
  -0.0018659600   -0.0005957800    0.0000000000

1
 -0.0100000000000000   0.0000000000000000   0.0000000000000000
   0.1315232800   -0.0942450800    0.0000000000
  -0.0036971200    0.0007581300    0.0000000000
   0.0010866800    0.0007534500    0.0000000000
  -0.0011958900    0.0005412400    0.0000000000
   0.0030049800   -0.0017167400   -0.0002261200
  -0.0029384300    0.0005460300   -0.0001331200
   0.0007322800    0.0005369300   -0.0004581000
  -0.0009773400    0.0006097300    0.0004245700
   0.0030049800   -0.0017167400    0.0002261200
  -0.0029384300    0.0005460300    0.0001331200
   0.0007322800    0.0005369300    0.0004581000
  -0.0009773400    0.0006097300   -0.0004245700
  -0.0026453100    0.0024823200    0.0000000000
   0.0013563500   -0.0021412400    0.0000000000
  -0.0024088800   -0.0021253300    0.0000000000
  -0.0200154300    0.0238259000    0.0000000000
  -0.0015477700    0.0016670800   -0.0006578600
   0.0014173500   -0.0008675700    0.0003941200
  -0.0004859700   -0.0008594800   -0.0006241900
   0.0003211700    0.0001218200    0.0017303400
  -0.0015477700    0.0016670800    0.0006578600
   0.0014173500   -0.0008675700   -0.0003941200
  -0.0004859700   -0.0008594800    0.0006241900
   0.0003211700    0.0001218200   -0.0017303400
   0.0032985000    0.0053228300    0.0043880700
  -0.0025707900   -0.0017875300    0.0000295600
   0.0033032500   -0.0008321900    0.0006295200
  -0.0025730000   -0.0004887800   -0.0015533200
   0.0032985000    0.0053228300   -0.0043880700
  -0.0025707900   -0.0017875300   -0.0000295600
   0.0033032500   -0.0008321900   -0.0006295200
  -0.0025730000   -0.0004887800    0.0015533200
   0.0006172400    0.0001255800    0.0000000000
  -0.0006161800   -0.0001995200    0.0000000000
   0.0006162400    0.0002751100    0.0000000000
  -0.0006159700   -0.0001790400    0.0000000000
  -0.0095370000    0.0007966300    0.0100749500
  -0.0096468200   -0.0053597200   -0.0087175700
   0.0002297200    0.0004814000    0.0001678400
   0.0002428600    0.0017920500   -0.0019535300
  -0.0095370000    0.0007966300   -0.0100749500
  -0.0096468200   -0.0053597200    0.0087175700
   0.0002297200    0.0004814000   -0.0001678400
   0.0002428600    0.0017920500    0.0019535300
  -0.0000021300   -0.0002763500    0.0000000000
   0.0000078400   -0.0001207500    0.0000000000
   0.0000656200    0.0001785100    0.0000000000
   0.0000692600    0.0001998300    0.0000000000
  -0.0392575000    0.0308020100    0.0000000000
   0.0075590400    0.0047337400    0.0000000000
  -0.0018634300    0.0025767800    0.0000000000
   0.0079634700   -0.0068891800    0.0000000000
  -0.0025354700   -0.0011672200    0.0058912200
   0.0028884900    0.0024270700   -0.0042299200
  -0.0005945500   -0.0001484900   -0.0002041900
   0.0010304600   -0.0005452500   -0.0016044100
  -0.0025354700   -0.0011672200   -0.0058912200
   0.0028884900    0.0024270700    0.0042299200
  -0.0005945500   -0.0001484900    0.0002041900
   0.0010304600   -0.0005452500    0.0016044100
  -0.0052229400   -0.0023498900    0.0009272600
   0.0028750700   -0.0010701100    0.0000550900
  -0.0274234600    0.0176578200   -0.0182722200
   0.0076222100    0.0046309300   -0.0007418800
  -0.0052229400   -0.0023498900   -0.0009272600
   0.0028750700   -0.0010701100   -0.0000550900
  -0.0274234600    0.0176578200    0.0182722200
   0.0076222100    0.0046309300    0.0007418800
  -0.0018631100   -0.0001868200    0.0000000000
   0.0017371700   -0.0008966900    0.0000000000
  -0.0021135900    0.0006225900    0.0000000000
   0.0018667200    0.0005900900    0.0000000000

1
  0.0000000000000000   0.0000000000000000   0.0100000000000000
   0.0017298700   -0.0017298700   -0.1523772100
  -0.0000126600    0.0000105600   -0.0026356000
  -0.0000105600    0.0000126600   -0.0026356000
  -0.0000059700    0.0000059700   -0.0011210900
  -0.0002086300    0.0002086300    0.0132365000
  -0.0001513100    0.0004666000    0.0016538700
  -0.0004666000    0.0001513100    0.0016538700
   0.0004165400   -0.0004165400    0.0005139800
   0.0002162900   -0.0002162900    0.0130494300
   0.0001272400   -0.0004495300    0.0016593200
   0.0004495300   -0.0001272400    0.0016593200
  -0.0004331100    0.0004331100    0.0005109500
   0.0000026400   -0.0000026400   -0.0022090800
   0.0000145800   -0.0000047700   -0.0023210900
   0.0000047700   -0.0000145800   -0.0023210900
   0.0000239500   -0.0000239500   -0.0075263000
   0.0006601900   -0.0006601900    0.0013001300
  -0.0003793800   -0.0006402300    0.0011631700
   0.0006402300    0.0003793800    0.0011631700
  -0.0017245500    0.0017245500    0.0018810200
  -0.0006552600    0.0006552600    0.0013036000
   0.0004025300    0.0006161800    0.0011686200
  -0.0006161800   -0.0004025300    0.0011686200
   0.0017503400   -0.0017503400    0.0019034000
  -0.0005817300    0.0086506300    0.0030054600
   0.0015505200    0.0019503200   -0.0006620100
  -0.0043738200   -0.0101000200    0.0029785900
  -0.0000205500   -0.0001600500   -0.0006592400
   0.0006253800   -0.0086792600    0.0029485500
  -0.0015402300   -0.0019396200   -0.0006656400
   0.0044382600    0.0102201600    0.0029727100
   0.0000365700    0.0001773200   -0.0006651200
   0.0000104100    0.0000010100    0.0029410500
   0.0000053800    0.0000059300    0.0010576300
   0.0000108400    0.0000171300    0.0029451700
   0.0000078900    0.0000103100    0.0010549200
  -0.0086506300    0.0005817300    0.0030054600
   0.0101000200    0.0043738200    0.0029785900
  -0.0019503200   -0.0015505200   -0.0006620100
   0.0001600500    0.0000205500   -0.0006592400
   0.0086792600   -0.0006253800    0.0029485500
  -0.0102201600   -0.0044382600    0.0029727100
   0.0019396200    0.0015402300   -0.0006656400
  -0.0001773200   -0.0000365700   -0.0006651200
  -0.0000010100   -0.0000104100    0.0029410500
  -0.0000171300   -0.0000108400    0.0029451700
  -0.0000059300   -0.0000053800    0.0010576300
  -0.0000103100   -0.0000078900    0.0010549200
  -0.0001291900    0.0001291900    0.0175175400
  -0.0000054800    0.0000045100    0.0088162700
  -0.0000045100    0.0000054800    0.0088162700
  -0.0000113500    0.0000113500    0.0005230000
  -0.0035049700    0.0035049700   -0.0060697500
   0.0016285800    0.0020161600   -0.0047319300
  -0.0020161600   -0.0016285800   -0.0047319300
   0.0006497400   -0.0006497400   -0.0005873500
   0.0034563900   -0.0034563900   -0.0060998800
  -0.0016178900   -0.0020075000   -0.0047336200
   0.0020075000    0.0016178900   -0.0047336200
  -0.0006433400    0.0006433400   -0.0005937300
  -0.0028991800   -0.0026304400    0.0017645600
   0.0005043600   -0.0005043600    0.0010021500
   0.0176575200   -0.0176575200    0.0489834400
   0.0026304400    0.0028991800    0.0017645600
   0.0028849900    0.0026091400    0.0017707400
  -0.0004982000    0.0004982000    0.0010037800
  -0.0192957600    0.0192957600    0.0512260900
  -0.0026091400   -0.0028849900    0.0017707400
  -0.0000001900    0.0000004500   -0.0032999200
   0.0000021700   -0.0000021700   -0.0020524400
   0.0000245300   -0.0000245300   -0.0103711300
  -0.0000004500    0.0000001900   -0.0032999200

49
  0.0100000000000000   0.0000000000000000   0.0000000000000000
   0.0392106900   -0.0308526200    0.0000000000
  -0.0075897600   -0.0025882800    0.0000000000
   0.0018644800   -0.0047036700    0.0000000000
  -0.0079473200    0.0068809900    0.0000000000
   0.0025355200    0.0011819200    0.0034748600
  -0.0028882700    0.0001573000   -0.0016268600
   0.0005980500   -0.0024232500    0.0020183200
  -0.0010396600    0.0005544800   -0.0006501400
   0.0025355200    0.0011819200   -0.0034748600
  -0.0028882700    0.0001573000    0.0016268600
   0.0005980500   -0.0024232500   -0.0020183200
  -0.0010396600    0.0005544800    0.0006501400
   0.0408855100   -0.0329694800    0.0000000000
  -0.0075211800   -0.0025349300    0.0000000000
   0.0019072900   -0.0047399000    0.0000000000
  -0.0079738100    0.0068910200    0.0000000000
   0.0025736500    0.0011553000   -0.0034868100
  -0.0028969800    0.0001533600    0.0016204800
   0.0006191700   -0.0024267600   -0.0020057600
  -0.0010278900    0.0005362600    0.0006425100
   0.0025736500    0.0011553000    0.0034868100
  -0.0028969800    0.0001533600   -0.0016204800
   0.0006191700   -0.0024267600    0.0020057600
  -0.0010278900    0.0005362600   -0.0006425100
   0.0272920600    0.0172239000    0.0181267800
  -0.0076259000   -0.0023336500    0.0026350000
   0.0052267700    0.0046510900   -0.0028887000
  -0.0028678100   -0.0010748200    0.0005006100
   0.0272920600    0.0172239000   -0.0181267800
  -0.0076259000   -0.0023336500   -0.0026350000
   0.0052267700    0.0046510900    0.0028887000
  -0.0028678100   -0.0010748200   -0.0005006100
   0.0021026800    0.0006220300    0.0000000000
  -0.0018575300   -0.0001811600    0.0000000000
   0.0018651000    0.0005991400    0.0000000000
  -0.0017278800   -0.0008915300    0.0000000000
   0.0274165600    0.0176113000   -0.0188062800
  -0.0076347600   -0.0023681700   -0.0026035300
   0.0052094400    0.0046356800    0.0028945900
  -0.0028792200   -0.0010765700   -0.0005012400
   0.0274165600    0.0176113000    0.0188062800
  -0.0076347600   -0.0023681700    0.0026035300
   0.0052094400    0.0046356800   -0.0028945900
  -0.0028792200   -0.0010765700    0.0005012400
   0.0020932900    0.0006105400    0.0000000000
  -0.0018744000   -0.0001974300    0.0000000000
   0.0018530000    0.0005864500    0.0000000000
  -0.0017465400   -0.0009077200    0.0000000000
  -0.2055085000    0.0204923700    0.0000000000
   0.0196475600   -0.0013430900    0.0000000000
  -0.0116495100   -0.0013420900    0.0000000000
   0.0090074100   -0.0034890900    0.0000000000
  -0.0247287100   -0.0122502700   -0.0000503500
   0.0074550800    0.0005318300    0.0000235000
  -0.0067736100    0.0005308200    0.0000059500
   0.0039789900    0.0000596800    0.0000027600
  -0.0247287100   -0.0122502700    0.0000503500
   0.0074550800    0.0005318300   -0.0000235000
  -0.0067736100    0.0005308200   -0.0000059500
   0.0039789900    0.0000596800   -0.0000027600
   0.0104080000    0.0129824900    0.0065127200
   0.0103952000   -0.0130809100   -0.0174186000
   0.0103749100   -0.0129645400    0.0173652100
   0.0103627800    0.0130629300   -0.0066204700
   0.0104080000    0.0129824900   -0.0065127200
   0.0103952000   -0.0130809100    0.0174186000
   0.0103749100   -0.0129645400   -0.0173652100
   0.0103627800    0.0130629300    0.0066204700
   0.0017116300    0.0014769300    0.0000000000
   0.0016947700   -0.0014827300    0.0000000000
   0.0017027500   -0.0014744500    0.0000000000
   0.0016835500    0.0014798700    0.0000000000

49
  0.0000000000000000   0.0000000000000000   0.0100000000000000
   0.0001534300   -0.0001534300    0.0175182500
  -0.0000147700    0.0000082200    0.0088160500
  -0.0000082200    0.0000147700    0.0088160500
   0.0000076800   -0.0000076800    0.0005243800
   0.0059131400   -0.0059131400   -0.0060976600
  -0.0042321000    0.0002236400   -0.0047245800
  -0.0002236400    0.0042321000   -0.0047245800
  -0.0016149400    0.0016149400   -0.0005866900
  -0.0058919700    0.0058919700   -0.0060701600
   0.0042245700   -0.0002147500   -0.0047389700
   0.0002147500   -0.0042245700   -0.0047389700
   0.0015870200   -0.0015870200   -0.0005933900
  -0.0001534300    0.0001534300    0.0175182500
   0.0000147700   -0.0000082200    0.0088160500
   0.0000082200   -0.0000147700    0.0088160500
  -0.0000076800    0.0000076800    0.0005243800
  -0.0059131400    0.0059131400   -0.0060976600
   0.0042321000   -0.0002236400   -0.0047245800
   0.0002236400   -0.0042321000   -0.0047245800
   0.0016149400   -0.0016149400   -0.0005866900
   0.0058919700   -0.0058919700   -0.0060701600
  -0.0042245700    0.0002147500   -0.0047389700
  -0.0002147500    0.0042245700   -0.0047389700
  -0.0015870200    0.0015870200   -0.0005933900
   0.0170887600    0.0170887600    0.0489423300
   0.0007547000   -0.0009163500    0.0017612500
  -0.0009163500    0.0007547000    0.0017612500
  -0.0000493100   -0.0000493100    0.0010003200
  -0.0186544300   -0.0186544300    0.0512720200
  -0.0007333500    0.0009392200    0.0017765000
   0.0009392200   -0.0007333500    0.0017765000
   0.0000615600    0.0000615600    0.0010076800
   0.0000154300    0.0000154300   -0.0103702600
  -0.0000006300    0.0000035800   -0.0032994400
   0.0000035800   -0.0000006300   -0.0032994400
   0.0000105100    0.0000105100   -0.0020519900
  -0.0170887600   -0.0170887600    0.0489423300
  -0.0007547000    0.0009163500    0.0017612500
   0.0009163500   -0.0007547000    0.0017612500
   0.0000493100    0.0000493100    0.0010003200
   0.0186544300    0.0186544300    0.0512720200
   0.0007333500   -0.0009392200    0.0017765000
  -0.0009392200    0.0007333500    0.0017765000
  -0.0000615600   -0.0000615600    0.0010076800
  -0.0000154300   -0.0000154300   -0.0103702600
   0.0000006300   -0.0000035800   -0.0032994400
  -0.0000035800    0.0000006300   -0.0032994400
  -0.0000105100   -0.0000105100   -0.0020519900
   0.0000000000    0.0000000000   -0.3089385000
   0.0000000000    0.0000000000   -0.0041596100
   0.0000000000    0.0000000000   -0.0041596100
   0.0000000000    0.0000000000   -0.0027307600
   0.0000000000    0.0000000000    0.0606822100
   0.0000000000    0.0000000000    0.0020039800
   0.0000000000    0.0000000000    0.0020039800
   0.0000000000    0.0000000000    0.0012942800
   0.0000000000    0.0000000000    0.0598829700
   0.0000000000    0.0000000000    0.0020182500
   0.0000000000    0.0000000000    0.0020182500
   0.0000000000    0.0000000000    0.0012982000
   0.0173670000    0.0173670000   -0.0042440000
  -0.0065532200    0.0065532200   -0.0041913600
   0.0065532200   -0.0065532200   -0.0041913600
  -0.0173670000   -0.0173670000   -0.0042440000
  -0.0174167400   -0.0174167400   -0.0042296800
   0.0065783300   -0.0065783300   -0.0042824300
  -0.0065783300    0.0065783300   -0.0042824300
   0.0174167400    0.0174167400   -0.0042296800
  -0.0000063300   -0.0000063300    0.0088321700
   0.0000181700   -0.0000181700    0.0088320600
  -0.0000181700    0.0000181700    0.0088320600
   0.0000063300    0.0000063300    0.0088321700
