  MPI-parallelism will be employed.
------------------------------------------------------------
          Invoking FHI-aims ...
          Version workshop
          Compiled on 2009/06/20 at 17:37:41

          When using FHI-aims, please cite the following reference:

          Volker Blum, Ralf Gehrke, Felix Hanke, Paula Havu,
          Ville Havu, Xinguo Ren, Karsten Reuter, and Matthias Scheffler,
          'Ab Initio Molecular Simulations with Numeric Atom-Centered Orbitals: FHI-aims',
          Computer Physics Communications [volume], [page] (2008).

------------------------------------------------------------

  Date     :  20090924, Time     :  090332.197
  Time zero on CPU 1             :   0.400000000000000E-01  s.
  Internal wall clock time zero  :            23015012.197  s.

  Using       16 parallel tasks.
  Task        0 on host thp506 reporting.
  Obtaining array dimensions for all initial allocations:
  Parsing control.in ...
  MPI-parallelism will be employed.
  Task        1 on host thp506 reporting.
  MPI-parallelism will be employed.
  Task        2 on host thp506 reporting.
  MPI-parallelism will be employed.
  Task        3 on host thp506 reporting.
  MPI-parallelism will be employed.
  Task        4 on host thp506 reporting.
  MPI-parallelism will be employed.
  Task        5 on host thp506 reporting.
  MPI-parallelism will be employed.
  Task        6 on host thp506 reporting.
  MPI-parallelism will be employed.
  Task        7 on host thp506 reporting.
  MPI-parallelism will be employed.
  Task        8 on host thp506 reporting.
  MPI-parallelism will be employed.
  Task        9 on host thp506 reporting.
  MPI-parallelism will be employed.
  Task       10 on host thp506 reporting.
  MPI-parallelism will be employed.
  Task       11 on host thp506 reporting.
  MPI-parallelism will be employed.
  Task       12 on host thp506 reporting.
  MPI-parallelism will be employed.
  Task       13 on host thp506 reporting.
  MPI-parallelism will be employed.
  Task       14 on host thp506 reporting.
  MPI-parallelism will be employed.
  Task       15 on host thp506 reporting.
  Parsing geometry.in ...
 
  Basic array size parameters: 
  | Number of species                 :        1
  | Number of atoms                   :      128
  | Number of lattice vectors         :        3
  | Max. basis fn. angular momentum   :        2
  | Max. atomic/ionic basis occupied n:        3
  | Max. number of basis fn. types    :        3
  | Max. radial fns per species/type  :        5
  | Max. logarithmic grid size        :     1346
  | Max. radial integration grid size :       42
  | Max. angular integration grid size:      302
  | Max. angular grid division number :        8
  | Radial grid for Hartree potential :     1346
  | Number of spin channels           :        1

------------------------------------------------------------
          Reading file control.in.
------------------------------------------------------------
  XC: Using Perdew-Wang parametrisation of Ceperley-Alder LDA.
  Found k-point grid:         3         3         3
  Kohn-Sham eigenvalues and eigenfunctions calculated by modified ScaLAPACK (scalapack_fast).
  Convergence accuracy of self-consistent charge density: 0.1000E-05
  Convergence accuracy of sum of eigenvalues: 0.1000E-03
  Convergence accuracy of total energy: 0.1000E-05
  Convergence accuracy of forces: 0.1000E-04
 
  Reading configuration options for species Si                  .
  | Found nuclear charge :  14
  | Found atomic mass :  28.0854999999999997 amu
  | Found l_max for Hartree potential  :   4
  | Found cutoff potl. onset [A], width [A], scale factor :    3.50000    1.50000    1.00000
  | Threshold for basis-dependent cutoff potential is   0.100000E-03
  | Found data for basic radial integration grid :    42 points, outermost radius =    5.000 A
  | Found multiplier for basic radial grid :   1
  | Found angular grid specification: user-specified.
  | Specified grid contains     5 separate shells.
  | Check grid settings after all constraints further below.
  | Found free-atom valence shell :  3 s   2.000
  | Found free-atom valence shell :  3 p   2.000
  | Found free-ion valence shell :  3 s   1.000
  | Found free-ion valence shell :  3 p   1.000
  | Found hydrogenic basis function :  3 d   4.200
  | Found hydrogenic basis function :  2 p   1.400
  | Found ionic basis function :  3 s , default cutoff radius.
  Species Si                  : Missing cutoff potential type.
  Defaulting to exp(1/x)/(1-x)^2 type cutoff potential.
  Species Si: No 'logarithmic' tag. Using default grid for free atom:
  | Default logarithmic grid data [bohr] : 0.1000E-03 0.1000E+03 0.1012E+01
  | Will include ionic basis functions of  2.0-fold positive Si                   ion.
  Species Si: On-site basis accuracy parameter (for Gram-Schmidt orthonormalisation) not specified.
  Using default value basis_acc =  0.1000000E-03.
  Species Si                  : Using default innermost maximum threshold i_radial=  2 for radial functions.
  Species Si                  : Default cutoff onset for free atom density etc. : 0.35000000E+01 AA.
  Species Si                  : Basic radial grid will be enhanced according to radial_multiplier =   1, to contain    42 grid points.
 
  Input file control.in ends. 
  Target number of points in a grid batch is not set. Defaulting to  100
  Method for grid partitioning is not set. Defaulting to parallel hash+maxmin partitioning.
  Batch size limit is not set. Defaulting to    200
  By default, will store active basis functions for each batch.
  If in need of memory, prune_basis_once .false. can be used to disable this option.
  Defaulting to Pulay charge density mixer.
  Pulay mixer: Number of relevant iterations not set.
  Defaulting to    8 iterations.
  Pulay mixer: Number of initial linear mixing iterations not set.
  Defaulting to    0 iterations.
  Work space size for distributed Hartree potential not set.
  Defaulting to   0.200000E+03 MB.
  Mixing parameter for charge density mixing has not been set.
  Using default: charge_mix_param =     0.6000.
  Algorithm-dependent basis array size parameters:
  | n_max_pulay                         :        8
  Maximum number of self-consistency iterations not provided.
  Presetting  1000 iterations.
  Geometry relaxation not requested: no relaxation will be performed.
  Handling of forces: Unphysical translation and rotation will be removed from forces.
  No accuracy limit for integral partition fn. given. Defaulting to 0.1000E-14.
  No threshold value for u(r) in integrations given. Defaulting to 0.1000E-05.
  No occupation type (smearing scheme) given. Defaulting to Gaussian broadening, width = 0.1000E-01 eV.
  No accuracy for occupation numbers given. Defaulting to 0.1000E-07.
  No threshold value for occupation numbers given. Defaulting to 0.0000E+00.
  No accuracy for fermi level given. Defaulting to 0.1000E-19.
  Maximum # of iterations to find E_F not set. Defaulting to  200.
  Threshold for basis singularities not set.
  Default threshold for basis singularities: 0.1000E-04
 * You have    27 k-points in your system, but only    16 MPI-tasks available.
 * In this case using ScaLAPACK is not necessary / supported.
 * Switching to default eigenvalue solver (lapack) instead.
  Partitioning for integrals was not defined. Using the partition function of Stratmann and coworkers.
  Partitioning for Hartree potential was not defined. Using partition_type for integrals.
  Spin handling was not defined in control.in. Defaulting to unpolarized case.
  No q(lm)/r^(l+1) cutoff set for long-range Hartree potential.
  | Using default value of  0.100000E-09 .
  | Verify using the multipole_threshold keyword.
  Using density matrix based charge density update.
  Using packed matrix style: index .
------------------------------------------------------------


------------------------------------------------------------
          Reading geometry description geometry.in.
------------------------------------------------------------
 * Warning! You did not set the 'relativistic' flag in input file 'control.in'.
 * Since you are not attempting to treat any elements beyond Ca(Z=20), FHI-aims
 * will default to 'relativistic none'.
 * You must ensure that this is really what you want!!
 * For example, DO NOT compute total-energy differences between results from
 * different settings of the 'relativistic' flag.
  Input structure read successfully. 
  The structure contains  128 atoms,  and a total of   1792.000 electrons.
 
  Input geometry:
  | Unit cell: 
  |         0.000000        10.840000        10.840000
  |        10.840000         0.000000        10.840000
  |        10.840000        10.840000         0.000000
  | Atomic structure: 
  |       Atom                x [A]            y [A]            z [A]
  |    1: Species Si         0.000000         0.007071         0.007071
  |    2: Species Si         0.000000         2.710000         2.710000
  |    3: Species Si         0.000000         5.420000         5.420000
  |    4: Species Si         0.000000         8.130000         8.130000
  |    5: Species Si         2.710000         0.000000         2.710000
  |    6: Species Si         2.710000         2.710000         5.420000
  |    7: Species Si         2.710000         5.420000         8.130000
  |    8: Species Si         2.710000         8.130000        10.840000
  |    9: Species Si         5.420000         0.000000         5.420000
  |   10: Species Si         5.420000         2.710000         8.130000
  |   11: Species Si         5.420000         5.420000        10.840000
  |   12: Species Si         5.420000         8.130000        13.550000
  |   13: Species Si         8.130000         0.000000         8.130000
  |   14: Species Si         8.130000         2.710000        10.840000
  |   15: Species Si         8.130000         5.420000        13.550000
  |   16: Species Si         8.130000         8.130000        16.260000
  |   17: Species Si         2.710000         2.710000         0.000000
  |   18: Species Si         2.710000         5.420000         2.710000
  |   19: Species Si         2.710000         8.130000         5.420000
  |   20: Species Si         2.710000        10.840000         8.130000
  |   21: Species Si         5.420000         2.710000         2.710000
  |   22: Species Si         5.420000         5.420000         5.420000
  |   23: Species Si         5.420000         8.130000         8.130000
  |   24: Species Si         5.420000        10.840000        10.840000
  |   25: Species Si         8.130000         2.710000         5.420000
  |   26: Species Si         8.130000         5.420000         8.130000
  |   27: Species Si         8.130000         8.130000        10.840000
  |   28: Species Si         8.130000        10.840000        13.550000
  |   29: Species Si        10.840000         2.710000         8.130000
  |   30: Species Si        10.840000         5.420000        10.840000
  |   31: Species Si        10.840000         8.130000        13.550000
  |   32: Species Si        10.840000        10.840000        16.260000
  |   33: Species Si         5.420000         5.420000         0.000000
  |   34: Species Si         5.420000         8.130000         2.710000
  |   35: Species Si         5.420000        10.840000         5.420000
  |   36: Species Si         5.420000        13.550000         8.130000
  |   37: Species Si         8.130000         5.420000         2.710000
  |   38: Species Si         8.130000         8.130000         5.420000
  |   39: Species Si         8.130000        10.840000         8.130000
  |   40: Species Si         8.130000        13.550000        10.840000
  |   41: Species Si        10.840000         5.420000         5.420000
  |   42: Species Si        10.840000         8.130000         8.130000
  |   43: Species Si        10.840000        10.840000        10.840000
  |   44: Species Si        10.840000        13.550000        13.550000
  |   45: Species Si        13.550000         5.420000         8.130000
  |   46: Species Si        13.550000         8.130000        10.840000
  |   47: Species Si        13.550000        10.840000        13.550000
  |   48: Species Si        13.550000        13.550000        16.260000
  |   49: Species Si         8.130000         8.130000         0.000000
  |   50: Species Si         8.130000        10.840000         2.710000
  |   51: Species Si         8.130000        13.550000         5.420000
  |   52: Species Si         8.130000        16.260000         8.130000
  |   53: Species Si        10.840000         8.130000         2.710000
  |   54: Species Si        10.840000        10.840000         5.420000
  |   55: Species Si        10.840000        13.550000         8.130000
  |   56: Species Si        10.840000        16.260000        10.840000
  |   57: Species Si        13.550000         8.130000         5.420000
  |   58: Species Si        13.550000        10.840000         8.130000
  |   59: Species Si        13.550000        13.550000        10.840000
  |   60: Species Si        13.550000        16.260000        13.550000
  |   61: Species Si        16.260000         8.130000         8.130000
  |   62: Species Si        16.260000        10.840000        10.840000
  |   63: Species Si        16.260000        13.550000        13.550000
  |   64: Species Si        16.260000        16.260000        16.260000
  |   65: Species Si         1.355000         1.355000         1.355000
  |   66: Species Si         1.355000         4.065000         4.065000
  |   67: Species Si         1.355000         6.775000         6.775000
  |   68: Species Si         1.355000         9.485000         9.485000
  |   69: Species Si         4.065000         1.355000         4.065000
  |   70: Species Si         4.065000         4.065000         6.775000
  |   71: Species Si         4.065000         6.775000         9.485000
  |   72: Species Si         4.065000         9.485000        12.195000
  |   73: Species Si         6.775000         1.355000         6.775000
  |   74: Species Si         6.775000         4.065000         9.485000
  |   75: Species Si         6.775000         6.775000        12.195000
  |   76: Species Si         6.775000         9.485000        14.905000
  |   77: Species Si         9.485000         1.355000         9.485000
  |   78: Species Si         9.485000         4.065000        12.195000
  |   79: Species Si         9.485000         6.775000        14.905000
  |   80: Species Si         9.485000         9.485000        17.615000
  |   81: Species Si         4.065000         4.065000         1.355000
  |   82: Species Si         4.065000         6.775000         4.065000
  |   83: Species Si         4.065000         9.485000         6.775000
  |   84: Species Si         4.065000        12.195000         9.485000
  |   85: Species Si         6.775000         4.065000         4.065000
  |   86: Species Si         6.775000         6.775000         6.775000
  |   87: Species Si         6.775000         9.485000         9.485000
  |   88: Species Si         6.775000        12.195000        12.195000
  |   89: Species Si         9.485000         4.065000         6.775000
  |   90: Species Si         9.485000         6.775000         9.485000
  |   91: Species Si         9.485000         9.485000        12.195000
  |   92: Species Si         9.485000        12.195000        14.905000
  |   93: Species Si        12.195000         4.065000         9.485000
  |   94: Species Si        12.195000         6.775000        12.195000
  |   95: Species Si        12.195000         9.485000        14.905000
  |   96: Species Si        12.195000        12.195000        17.615000
  |   97: Species Si         6.775000         6.775000         1.355000
  |   98: Species Si         6.775000         9.485000         4.065000
  |   99: Species Si         6.775000        12.195000         6.775000
  |  100: Species Si         6.775000        14.905000         9.485000
  |  101: Species Si         9.485000         6.775000         4.065000
  |  102: Species Si         9.485000         9.485000         6.775000
  |  103: Species Si         9.485000        12.195000         9.485000
  |  104: Species Si         9.485000        14.905000        12.195000
  |  105: Species Si        12.195000         6.775000         6.775000
  |  106: Species Si        12.195000         9.485000         9.485000
  |  107: Species Si        12.195000        12.195000        12.195000
  |  108: Species Si        12.195000        14.905000        14.905000
  |  109: Species Si        14.905000         6.775000         9.485000
  |  110: Species Si        14.905000         9.485000        12.195000
  |  111: Species Si        14.905000        12.195000        14.905000
  |  112: Species Si        14.905000        14.905000        17.615000
  |  113: Species Si         9.485000         9.485000         1.355000
  |  114: Species Si         9.485000        12.195000         4.065000
  |  115: Species Si         9.485000        14.905000         6.775000
  |  116: Species Si         9.485000        17.615000         9.485000
  |  117: Species Si        12.195000         9.485000         4.065000
  |  118: Species Si        12.195000        12.195000         6.775000
  |  119: Species Si        12.195000        14.905000         9.485000
  |  120: Species Si        12.195000        17.615000        12.195000
  |  121: Species Si        14.905000         9.485000         6.775000
  |  122: Species Si        14.905000        12.195000         9.485000
  |  123: Species Si        14.905000        14.905000        12.195000
  |  124: Species Si        14.905000        17.615000        14.905000
  |  125: Species Si        17.615000         9.485000         9.485000
  |  126: Species Si        17.615000        12.195000        12.195000
  |  127: Species Si        17.615000        14.905000        14.905000
  |  128: Species Si        17.615000        17.615000        17.615000
 
  Structure-dependent array size parameters: 
  | Maximum number of distinct radial functions  :        8
  | Maximum number of basis functions            :     2304
  | Number of Kohn-Sham states (occupied + empty):     1216
------------------------------------------------------------
  | Super cell volume                              :   0.254752E+04  A^3
  | Reciprocial lattice vector 1: -0.289815  0.289815  0.289815
  | Reciprocial lattice vector 2:  0.289815 -0.289815  0.289815
  | Reciprocial lattice vector 3:  0.289815  0.289815 -0.289815

------------------------------------------------------------
          Preparing all fixed parts of the calculation.
------------------------------------------------------------
  Determining machine precision:
   0.222507385850720138E-307
  Setting up grids for atomic and cluster calculations.

  Creating wave function, potential, and density for free atoms.

  Species: Si

  List of occupied orbitals and eigenvalues:
    n    l      energy [Ha]    energy [eV]
    1    0       -65.172154     -1773.4245
    2    0        -5.063250      -137.7780
    3    0        -0.389854       -10.6085
    2    1        -3.503088       -95.3239
    3    1        -0.144317        -3.9271

  Creating fixed part of basis set: Ionic, confined, hydrogenic.
 
  Si                   ion:

  List of free ionic orbitals and eigenvalues:
    n    l      energy [Ha]    energy [eV]
    1    0       -66.042358     -1797.1040
    2    0        -5.909940      -160.8177
    3    0        -1.075552       -29.2673
    2    1        -4.350945      -118.3952
    3    1        -0.781825       -21.2745


  List of ionic basis orbitals and eigenvalues:
    n    l      energy [Ha]    energy [eV]    wfn radius [A]
    3    0        -1.075532       -29.2667       3.181181

 
  Si                   hydrogenic:
 
  List of hydrogenic basis orbitals: 
    n    l      effective z      eigenvalue [eV]  inner max. [A]     outer max. [A]     cutoff onset [A]   
    3    2         4.200000       -26.6624           1.139231           1.139231           3.500000
    2    1         1.400000        -6.4613           1.472672           1.472672           3.500000
 

  Adding cutoff potential to free-atom effective potential.
  Creating atomic-like basis functions for current effective potential.
  Assembling full basis from fixed parts.
  | Species Si :   atomic orbital   2 s accepted.
  | Species Si :   atomic orbital   3 s accepted.
  | Species Si :    ionic orbital   3 s accepted.
  | Species Si :   atomic orbital   1 s accepted.
  | Species Si :   atomic orbital   2 p accepted.
  | Species Si :   atomic orbital   3 p accepted.
  | Species Si :    hydro orbital   2 p accepted.
  | Species Si :    hydro orbital   3 d accepted.
 
  Basis size parameters after reduction:
  | Total number of radial functions:        8
  | Total number of basis functions :     2304
 
  Preparing densities etc. for the partition functions (integrals / Hartree potential).

  Preparations completed.
  max(cpu_time)          :      0.450 s.
  Wall clock time (cpu1) :      0.443 s.
------------------------------------------------------------

------------------------------------------------------------
          Begin self-consistency loop: Initialization.

          Date     :  20090924, Time     :  090332.647
------------------------------------------------------------

  Initializing index lists of integration centers etc. from given atomic structure:
  Mapping all atomic coordinates to central Wigner-Seitz unit cell.
  | K-points in task   3:         2
  | K-points in task   6:         2
  | K-points in task   7:         2
  | K-points in task  12:         1

  Initializing the k-points
  | Number of k-points                             :        27
  | K-points in task   5:         2
  The eigenvectors in the calculations are COMPLEX.
  | K-points in task   0:         1
  | K-points in task   1:         2
  | K-points in task   2:         2
  | K-points in task   4:         2
  | K-points in task   8:         2
  | K-points in task   9:         2
  | K-points in task  10:         2
  | K-points in task  11:         2
  | K-points in task  13:         1
  | K-points in task  14:         1
  | K-points in task  15:         1
  | Number of basis functions in the Hamiltonian integrals :     10190
  | Number of basis functions in a single unit cell        :      2304
  | Number of centers in hamiltonian partition_tab :       128
  | Number of centers in hartree potential         :      2054
  | Number of centers in hartree multipole         :      1618
  | Number of centers in electron density summation:      1237
  | Number of centers in basis integrals           :      1335
  | Number of centers in integrals                 :       625
  | Number of super-cells :         28
  | Size of matrix packed + index : 2715167
  Partitioning the integration grid into batches with parallel hashing+maxmin method.
  | Number of batches:     9673
  | Maximal batch size:     121
  | Minimal batch size:      49
  | Average batch size:      74.156
  | Standard deviation of batch sizes:      21.186
 
  Integration load balanced across    16 MPI tasks. 
  Work distribution over tasks is as follows:
  Task     0 has      44832 integration points.
  Task     1 has      44803 integration points.
  Task     2 has      44840 integration points.
  Task     3 has      44806 integration points.
  Task     4 has      44845 integration points.
  Task     5 has      44861 integration points.
  Task     6 has      44839 integration points.
  Task     7 has      44802 integration points.
  Task     8 has      44837 integration points.
  Task     9 has      44839 integration points.
  Task    10 has      44860 integration points.
  Task    11 has      44862 integration points.
  Task    12 has      44848 integration points.
  Task    13 has      44802 integration points.
  Task    14 has      44833 integration points.
  Task    15 has      44803 integration points.
  Initializing partition tables, free-atom densities, potentials, etc.
  across the integration grid (initialize_grid_storage).
  | Net number of integration points:   717312
  | of which are non-zero points    :   625412
  | Average free-atom electrostatic potential              :    -13.24040786 eV
  Obtaining max. number of non-zero basis functions in each batch (get_n_compute_maxes).
  | Maximal number of non-zero basis functions:      499 in task     0
  For each atomic center, finding distance to closest integration grid point.
  | Maximal number of non-zero basis functions:      509 in task     1
  | Maximal number of non-zero basis functions:      493 in task     2
  | Maximal number of non-zero basis functions:      510 in task     3
  | Maximal number of non-zero basis functions:      503 in task     4
  | Maximal number of non-zero basis functions:      497 in task     5
  | Maximal number of non-zero basis functions:      497 in task     6
  | Maximal number of non-zero basis functions:      505 in task     7
  | Maximal number of non-zero basis functions:      505 in task     8
  | Maximal number of non-zero basis functions:      520 in task     9
  | Maximal number of non-zero basis functions:      505 in task    10
  | Maximal number of non-zero basis functions:      513 in task    11
  | Maximal number of non-zero basis functions:      508 in task    12
  | Maximal number of non-zero basis functions:      490 in task    13
  | Maximal number of non-zero basis functions:      493 in task    14
  | Maximal number of non-zero basis functions:      504 in task    15
  Integrating overlap matrix.
  Integrating Hamiltonian matrix: batch-based integration.
 Decreasing sparse matrix size
   Tolerance: 0.999999982451670044E-13
   Hamiltonian matrix
  | Array has  2395527 nonzero elements out of  2715167 elements
  | Sparsity factor is 0.118
   Overlap matrix
  | Array has  2304617 nonzero elements out of  2715167 elements
  | Sparsity factor is 0.151
  New size of hamiltonian matrix:     2399659

  Updating Kohn-Sham eigenvalues, eigenvectors, occupation numbers, and Fermi level.
  Transforming overlap matrix and checking for singularities.
  Overlap matrix is nonsingular at first k-point:
  | Lowest eigenvalue:  0.405320E-03
  Determining occupation numbers for Kohn-Sham eigenstates.
  | Chemical potential (Fermi level) in eV                 : -.62586203E+01
  | Error in electron count due to remaining E_F inaccuracy: 0.24601832E-09

  Writing Kohn-Sham eigenvalues.
 K-point: 1

  State    Occupation    Eigenvalue [Ha]    Eigenvalue [eV]
      1       2.00000         -65.194629        -1774.03612
      2       2.00000         -65.194472        -1774.03186
      3       2.00000         -65.194470        -1774.03178
      4       2.00000         -65.194469        -1774.03178
      5       2.00000         -65.194469        -1774.03178
      6       2.00000         -65.194469        -1774.03178
      7       2.00000         -65.194469        -1774.03178
      8       2.00000         -65.194469        -1774.03177
      9       2.00000         -65.194469        -1774.03177
     10       2.00000         -65.194469        -1774.03177
     11       2.00000         -65.194469        -1774.03177
     12       2.00000         -65.194469        -1774.03177
     13       2.00000         -65.194469        -1774.03177
     14       2.00000         -65.194469        -1774.03177
     15       2.00000         -65.194469        -1774.03177
     16       2.00000         -65.194469        -1774.03177
     17       2.00000         -65.194469        -1774.03177
     18       2.00000         -65.194469        -1774.03177
     19       2.00000         -65.194469        -1774.03177
     20       2.00000         -65.194469        -1774.03177
     21       2.00000         -65.194469        -1774.03177
     22       2.00000         -65.194469        -1774.03177
     23       2.00000         -65.194469        -1774.03177
     24       2.00000         -65.194469        -1774.03177
     25       2.00000         -65.194469        -1774.03177
     26       2.00000         -65.194469        -1774.03177
     27       2.00000         -65.194469        -1774.03177
     28       2.00000         -65.194469        -1774.03177
     29       2.00000         -65.194469        -1774.03177
     30       2.00000         -65.194469        -1774.03177
     31       2.00000         -65.194469        -1774.03177
     32       2.00000         -65.194469        -1774.03177
     33       2.00000         -65.194469        -1774.03177
     34       2.00000         -65.194469        -1774.03177
     35       2.00000         -65.194469        -1774.03177
     36       2.00000         -65.194469        -1774.03177
     37       2.00000         -65.194469        -1774.03177
     38       2.00000         -65.194469        -1774.03177
     39       2.00000         -65.194469        -1774.03177
     40       2.00000         -65.194469        -1774.03177
     41       2.00000         -65.194469        -1774.03177
     42       2.00000         -65.194469        -1774.03177
     43       2.00000         -65.194469        -1774.03177
     44       2.00000         -65.194469        -1774.03177
     45       2.00000         -65.194469        -1774.03177
     46       2.00000         -65.194469        -1774.03177
     47       2.00000         -65.194469        -1774.03177
     48       2.00000         -65.194469        -1774.03177
     49       2.00000         -65.194469        -1774.03177
     50       2.00000         -65.194469        -1774.03177
     51       2.00000         -65.194469        -1774.03177
     52       2.00000         -65.194469        -1774.03177
     53       2.00000         -65.194469        -1774.03177
     54       2.00000         -65.194469        -1774.03177
     55       2.00000         -65.194469        -1774.03177
     56       2.00000         -65.194469        -1774.03177
     57       2.00000         -65.194469        -1774.03177
     58       2.00000         -65.194469        -1774.03177
     59       2.00000         -65.194469        -1774.03177
     60       2.00000         -65.194469        -1774.03177
     61       2.00000         -65.194469        -1774.03177
     62       2.00000         -65.194469        -1774.03177
     63       2.00000         -65.194469        -1774.03177
     64       2.00000         -65.194469        -1774.03177
     65       2.00000         -65.194469        -1774.03177
     66       2.00000         -65.194469        -1774.03177
     67       2.00000         -65.194469        -1774.03177
     68       2.00000         -65.194469        -1774.03177
     69       2.00000         -65.194469        -1774.03177
     70       2.00000         -65.194469        -1774.03177
     71       2.00000         -65.194469        -1774.03177
     72       2.00000         -65.194469        -1774.03177
     73       2.00000         -65.194469        -1774.03177
     74       2.00000         -65.194469        -1774.03177
     75       2.00000         -65.194469        -1774.03177
     76       2.00000         -65.194469        -1774.03177
     77       2.00000         -65.194469        -1774.03177
     78       2.00000         -65.194469        -1774.03177
     79       2.00000         -65.194469        -1774.03177
     80       2.00000         -65.194469        -1774.03177
     81       2.00000         -65.194469        -1774.03177
     82       2.00000         -65.194469        -1774.03177
     83       2.00000         -65.194469        -1774.03177
     84       2.00000         -65.194469        -1774.03177
     85       2.00000         -65.194469        -1774.03177
     86       2.00000         -65.194469        -1774.03177
     87       2.00000         -65.194469        -1774.03177
     88       2.00000         -65.194469        -1774.03177
     89       2.00000         -65.194469        -1774.03177
     90       2.00000         -65.194469        -1774.03177
     91       2.00000         -65.194469        -1774.03177
     92       2.00000         -65.194469        -1774.03177
     93       2.00000         -65.194469        -1774.03177
     94       2.00000         -65.194469        -1774.03177
     95       2.00000         -65.194469        -1774.03177
     96       2.00000         -65.194469        -1774.03177
     97       2.00000         -65.194469        -1774.03177
     98       2.00000         -65.194469        -1774.03177
     99       2.00000         -65.194469        -1774.03177
    100       2.00000         -65.194469        -1774.03177
    101       2.00000         -65.194469        -1774.03177
    102       2.00000         -65.194469        -1774.03177
    103       2.00000         -65.194469        -1774.03177
    104       2.00000         -65.194469        -1774.03177
    105       2.00000         -65.194469        -1774.03177
    106       2.00000         -65.194469        -1774.03177
    107       2.00000         -65.194469        -1774.03177
    108       2.00000         -65.194469        -1774.03177
    109       2.00000         -65.194469        -1774.03177
    110       2.00000         -65.194469        -1774.03177
    111       2.00000         -65.194469        -1774.03177
    112       2.00000         -65.194469        -1774.03177
    113       2.00000         -65.194469        -1774.03177
    114       2.00000         -65.194469        -1774.03177
    115       2.00000         -65.194469        -1774.03177
    116       2.00000         -65.194469        -1774.03177
    117       2.00000         -65.194469        -1774.03177
    118       2.00000         -65.194469        -1774.03177
    119       2.00000         -65.194469        -1774.03177
    120       2.00000         -65.194469        -1774.03177
    121       2.00000         -65.194469        -1774.03177
    122       2.00000         -65.194469        -1774.03177
    123       2.00000         -65.194469        -1774.03177
    124       2.00000         -65.194469        -1774.03177
    125       2.00000         -65.194469        -1774.03177
    126       2.00000         -65.194469        -1774.03176
    127       2.00000         -65.194469        -1774.03176
    128       2.00000         -65.194314        -1774.02753
    129       2.00000          -5.090598         -138.52221
    130       2.00000          -5.090534         -138.52047
    131       2.00000          -5.090503         -138.51963
    132       2.00000          -5.090503         -138.51963
    133       2.00000          -5.090503         -138.51963
    134       2.00000          -5.090503         -138.51963
    135       2.00000          -5.090503         -138.51963
    136       2.00000          -5.090503         -138.51963
    137       2.00000          -5.090500         -138.51956
    138       2.00000          -5.090496         -138.51945
    139       2.00000          -5.090489         -138.51927
    140       2.00000          -5.090489         -138.51927
    141       2.00000          -5.090489         -138.51926
    142       2.00000          -5.090489         -138.51926
    143       2.00000          -5.090487         -138.51919
    144       2.00000          -5.090478         -138.51896
    145       2.00000          -5.090456         -138.51836
    146       2.00000          -5.090456         -138.51836
    147       2.00000          -5.090456         -138.51836
    148       2.00000          -5.090456         -138.51836
    149       2.00000          -5.090456         -138.51836
    150       2.00000          -5.090456         -138.51836
    151       2.00000          -5.090456         -138.51836
    152       2.00000          -5.090456         -138.51836
    153       2.00000          -5.090456         -138.51836
    154       2.00000          -5.090456         -138.51836
    155       2.00000          -5.090456         -138.51836
    156       2.00000          -5.090456         -138.51836
    157       2.00000          -5.090456         -138.51835
    158       2.00000          -5.090456         -138.51835
    159       2.00000          -5.090450         -138.51819
    160       2.00000          -5.090445         -138.51805
    161       2.00000          -5.090433         -138.51773
    162       2.00000          -5.090433         -138.51772
    163       2.00000          -5.090433         -138.51772
    164       2.00000          -5.090433         -138.51772
    165       2.00000          -5.090433         -138.51772
    166       2.00000          -5.090433         -138.51772
    167       2.00000          -5.090433         -138.51772
    168       2.00000          -5.090433         -138.51772
    169       2.00000          -5.090433         -138.51772
    170       2.00000          -5.090433         -138.51772
    171       2.00000          -5.090433         -138.51772
    172       2.00000          -5.090433         -138.51772
    173       2.00000          -5.090433         -138.51772
    174       2.00000          -5.090433         -138.51772
    175       2.00000          -5.090433         -138.51772
    176       2.00000          -5.090433         -138.51772
    177       2.00000          -5.090433         -138.51772
    178       2.00000          -5.090433         -138.51772
    179       2.00000          -5.090433         -138.51772
    180       2.00000          -5.090433         -138.51772
    181       2.00000          -5.090433         -138.51772
    182       2.00000          -5.090433         -138.51772
    183       2.00000          -5.090412         -138.51715
    184       2.00000          -5.090392         -138.51660
    185       2.00000          -5.090376         -138.51619
    186       2.00000          -5.090376         -138.51617
    187       2.00000          -5.090376         -138.51617
    188       2.00000          -5.090376         -138.51617
    189       2.00000          -5.090376         -138.51617
    190       2.00000          -5.090376         -138.51617
    191       2.00000          -5.090376         -138.51617
    192       2.00000          -5.090376         -138.51617
    193       2.00000          -5.090376         -138.51617
    194       2.00000          -5.090376         -138.51617
    195       2.00000          -5.090376         -138.51617
    196       2.00000          -5.090376         -138.51617
    197       2.00000          -5.090376         -138.51617
    198       2.00000          -5.090376         -138.51617
    199       2.00000          -5.090376         -138.51617
    200       2.00000          -5.090376         -138.51617
    201       2.00000          -5.090360         -138.51574
    202       2.00000          -5.090340         -138.51520
    203       2.00000          -5.090319         -138.51463
    204       2.00000          -5.090319         -138.51463
    205       2.00000          -5.090319         -138.51463
    206       2.00000          -5.090319         -138.51462
    207       2.00000          -5.090319         -138.51462
    208       2.00000          -5.090319         -138.51462
    209       2.00000          -5.090319         -138.51462
    210       2.00000          -5.090319         -138.51462
    211       2.00000          -5.090319         -138.51462
    212       2.00000          -5.090319         -138.51462
    213       2.00000          -5.090319         -138.51462
    214       2.00000          -5.090319         -138.51462
    215       2.00000          -5.090319         -138.51462
    216       2.00000          -5.090319         -138.51462
    217       2.00000          -5.090319         -138.51462
    218       2.00000          -5.090319         -138.51462
    219       2.00000          -5.090319         -138.51462
    220       2.00000          -5.090319         -138.51462
    221       2.00000          -5.090319         -138.51462
    222       2.00000          -5.090319         -138.51462
    223       2.00000          -5.090319         -138.51462
    224       2.00000          -5.090319         -138.51462
    225       2.00000          -5.090307         -138.51429
    226       2.00000          -5.090302         -138.51416
    227       2.00000          -5.090295         -138.51399
    228       2.00000          -5.090295         -138.51398
    229       2.00000          -5.090295         -138.51398
    230       2.00000          -5.090295         -138.51398
    231       2.00000          -5.090295         -138.51398
    232       2.00000          -5.090295         -138.51398
    233       2.00000          -5.090295         -138.51398
    234       2.00000          -5.090295         -138.51398
    235       2.00000          -5.090295         -138.51398
    236       2.00000          -5.090295         -138.51398
    237       2.00000          -5.090295         -138.51398
    238       2.00000          -5.090295         -138.51398
    239       2.00000          -5.090295         -138.51398
    240       2.00000          -5.090295         -138.51398
    241       2.00000          -5.090273         -138.51338
    242       2.00000          -5.090265         -138.51315
    243       2.00000          -5.090262         -138.51307
    244       2.00000          -5.090262         -138.51307
    245       2.00000          -5.090262         -138.51307
    246       2.00000          -5.090262         -138.51307
    247       2.00000          -5.090255         -138.51288
    248       2.00000          -5.090251         -138.51277
    249       2.00000          -5.090248         -138.51271
    250       2.00000          -5.090248         -138.51271
    251       2.00000          -5.090248         -138.51271
    252       2.00000          -5.090248         -138.51271
    253       2.00000          -5.090248         -138.51271
    254       2.00000          -5.090248         -138.51271
    255       2.00000          -5.090217         -138.51185
    256       2.00000          -5.090159         -138.51027
    257       2.00000          -3.530539          -96.07085
    258       2.00000          -3.530492          -96.06957
    259       2.00000          -3.530491          -96.06955
    260       2.00000          -3.530441          -96.06819
    261       2.00000          -3.530441          -96.06818
    262       2.00000          -3.530441          -96.06818
    263       2.00000          -3.530441          -96.06818
    264       2.00000          -3.530441          -96.06818
    265       2.00000          -3.530441          -96.06818
    266       2.00000          -3.530441          -96.06818
    267       2.00000          -3.530440          -96.06817
    268       2.00000          -3.530440          -96.06817
    269       2.00000          -3.530440          -96.06817
    270       2.00000          -3.530440          -96.06817
    271       2.00000          -3.530440          -96.06817
    272       2.00000          -3.530440          -96.06815
    273       2.00000          -3.530439          -96.06813
    274       2.00000          -3.530439          -96.06813
    275       2.00000          -3.530438          -96.06811
    276       2.00000          -3.530438          -96.06810
    277       2.00000          -3.530438          -96.06810
    278       2.00000          -3.530434          -96.06800
    279       2.00000          -3.530433          -96.06798
    280       2.00000          -3.530433          -96.06798
    281       2.00000          -3.530433          -96.06798
    282       2.00000          -3.530433          -96.06798
    283       2.00000          -3.530433          -96.06798
    284       2.00000          -3.530433          -96.06798
    285       2.00000          -3.530433          -96.06798
    286       2.00000          -3.530433          -96.06798
    287       2.00000          -3.530433          -96.06798
    288       2.00000          -3.530433          -96.06798
    289       2.00000          -3.530433          -96.06798
    290       2.00000          -3.530433          -96.06798
    291       2.00000          -3.530433          -96.06798
    292       2.00000          -3.530433          -96.06798
    293       2.00000          -3.530433          -96.06798
    294       2.00000          -3.530433          -96.06798
    295       2.00000          -3.530433          -96.06797
    296       2.00000          -3.530431          -96.06792
    297       2.00000          -3.530431          -96.06792
    298       2.00000          -3.530431          -96.06791
    299       2.00000          -3.530430          -96.06789
    300       2.00000          -3.530430          -96.06789
    301       2.00000          -3.530430          -96.06789
    302       2.00000          -3.530429          -96.06785
    303       2.00000          -3.530428          -96.06784
    304       2.00000          -3.530428          -96.06784
    305       2.00000          -3.530428          -96.06784
    306       2.00000          -3.530428          -96.06784
    307       2.00000          -3.530428          -96.06784
    308       2.00000          -3.530427          -96.06780
    309       2.00000          -3.530425          -96.06776
    310       2.00000          -3.530425          -96.06775
    311       2.00000          -3.530423          -96.06769
    312       2.00000          -3.530422          -96.06768
    313       2.00000          -3.530421          -96.06764
    314       2.00000          -3.530418          -96.06757
    315       2.00000          -3.530418          -96.06755
    316       2.00000          -3.530418          -96.06755
    317       2.00000          -3.530418          -96.06755
    318       2.00000          -3.530418          -96.06755
    319       2.00000          -3.530418          -96.06755
    320       2.00000          -3.530418          -96.06755
    321       2.00000          -3.530418          -96.06755
    322       2.00000          -3.530418          -96.06755
    323       2.00000          -3.530418          -96.06755
    324       2.00000          -3.530418          -96.06755
    325       2.00000          -3.530418          -96.06755
    326       2.00000          -3.530418          -96.06755
    327       2.00000          -3.530418          -96.06755
    328       2.00000          -3.530418          -96.06755
    329       2.00000          -3.530418          -96.06755
    330       2.00000          -3.530418          -96.06755
    331       2.00000          -3.530417          -96.06754
    332       2.00000          -3.530412          -96.06740
    333       2.00000          -3.530410          -96.06735
    334       2.00000          -3.530410          -96.06734
    335       2.00000          -3.530402          -96.06713
    336       2.00000          -3.530402          -96.06712
    337       2.00000          -3.530400          -96.06708
    338       2.00000          -3.530397          -96.06698
    339       2.00000          -3.530396          -96.06697
    340       2.00000          -3.530396          -96.06697
    341       2.00000          -3.530396          -96.06697
    342       2.00000          -3.530396          -96.06697
    343       2.00000          -3.530396          -96.06697
    344       2.00000          -3.530396          -96.06695
    345       2.00000          -3.530395          -96.06694
    346       2.00000          -3.530395          -96.06694
    347       2.00000          -3.530395          -96.06693
    348       2.00000          -3.530395          -96.06692
    349       2.00000          -3.530394          -96.06691
    350       2.00000          -3.530393          -96.06689
    351       2.00000          -3.530393          -96.06688
    352       2.00000          -3.530393          -96.06688
    353       2.00000          -3.530393          -96.06688
    354       2.00000          -3.530393          -96.06688
    355       2.00000          -3.530393          -96.06687
    356       2.00000          -3.530393          -96.06687
    357       2.00000          -3.530393          -96.06687
    358       2.00000          -3.530393          -96.06687
    359       2.00000          -3.530392          -96.06686
    360       2.00000          -3.530392          -96.06686
    361       2.00000          -3.530392          -96.06686
    362       2.00000          -3.530392          -96.06686
    363       2.00000          -3.530392          -96.06685
    364       2.00000          -3.530383          -96.06661
    365       2.00000          -3.530383          -96.06660
    366       2.00000          -3.530380          -96.06653
    367       2.00000          -3.530373          -96.06635
    368       2.00000          -3.530373          -96.06634
    369       2.00000          -3.530372          -96.06632
    370       2.00000          -3.530371          -96.06627
    371       2.00000          -3.530370          -96.06626
    372       2.00000          -3.530370          -96.06626
    373       2.00000          -3.530370          -96.06626
    374       2.00000          -3.530370          -96.06626
    375       2.00000          -3.530370          -96.06626
    376       2.00000          -3.530370          -96.06626
    377       2.00000          -3.530370          -96.06626
    378       2.00000          -3.530370          -96.06626
    379       2.00000          -3.530370          -96.06626
    380       2.00000          -3.530359          -96.06595
    381       2.00000          -3.530358          -96.06594
    382       2.00000          -3.530352          -96.06577
    383       2.00000          -3.530345          -96.06557
    384       2.00000          -3.530344          -96.06554
    385       2.00000          -3.530338          -96.06539
    386       2.00000          -3.530316          -96.06479
    387       2.00000          -3.530316          -96.06478
    388       2.00000          -3.530313          -96.06471
    389       2.00000          -3.530313          -96.06471
    390       2.00000          -3.530313          -96.06471
    391       2.00000          -3.530311          -96.06466
    392       2.00000          -3.530309          -96.06460
    393       2.00000          -3.530304          -96.06446
    394       2.00000          -3.530279          -96.06378
    395       2.00000          -3.530277          -96.06374
    396       2.00000          -3.530276          -96.06371
    397       2.00000          -3.530274          -96.06365
    398       2.00000          -3.530251          -96.06302
    399       2.00000          -3.530251          -96.06302
    400       2.00000          -3.530249          -96.06296
    401       2.00000          -3.530248          -96.06295
    402       2.00000          -3.530246          -96.06289
    403       2.00000          -3.530244          -96.06283
    404       2.00000          -3.530221          -96.06221
    405       2.00000          -3.530221          -96.06220
    406       2.00000          -3.530220          -96.06218
    407       2.00000          -3.530217          -96.06209
    408       2.00000          -3.530217          -96.06209
    409       2.00000          -3.530217          -96.06208
    410       2.00000          -3.530217          -96.06208
    411       2.00000          -3.530217          -96.06208
    412       2.00000          -3.530217          -96.06208
    413       2.00000          -3.530212          -96.06195
    414       2.00000          -3.530212          -96.06194
    415       2.00000          -3.530207          -96.06183
    416       2.00000          -3.530170          -96.06082
    417       2.00000          -3.530170          -96.06080
    418       2.00000          -3.530167          -96.06073
    419       2.00000          -3.530162          -96.06060
    420       2.00000          -3.530162          -96.06059
    421       2.00000          -3.530161          -96.06058
    422       2.00000          -3.530161          -96.06058
    423       2.00000          -3.530161          -96.06058
    424       2.00000          -3.530161          -96.06057
    425       2.00000          -3.530161          -96.06057
    426       2.00000          -3.530161          -96.06057
    427       2.00000          -3.530161          -96.06057
    428       2.00000          -3.530161          -96.06057
    429       2.00000          -3.530161          -96.06057
    430       2.00000          -3.530161          -96.06057
    431       2.00000          -3.530161          -96.06057
    432       2.00000          -3.530161          -96.06057
    433       2.00000          -3.530161          -96.06057
    434       2.00000          -3.530161          -96.06057
    435       2.00000          -3.530161          -96.06057
    436       2.00000          -3.530161          -96.06057
    437       2.00000          -3.530149          -96.06025
    438       2.00000          -3.530149          -96.06025
    439       2.00000          -3.530143          -96.06007
    440       2.00000          -3.530025          -96.05687
    441       2.00000          -3.530023          -96.05682
    442       2.00000          -3.530020          -96.05674
    443       2.00000          -3.530018          -96.05666
    444       2.00000          -3.530017          -96.05666
    445       2.00000          -3.530017          -96.05666
    446       2.00000          -3.530017          -96.05666
    447       2.00000          -3.530017          -96.05666
    448       2.00000          -3.530017          -96.05666
    449       2.00000          -3.530017          -96.05666
    450       2.00000          -3.530017          -96.05666
    451       2.00000          -3.530017          -96.05666
    452       2.00000          -3.530017          -96.05666
    453       2.00000          -3.530017          -96.05666
    454       2.00000          -3.530017          -96.05666
    455       2.00000          -3.530013          -96.05654
    456       2.00000          -3.530012          -96.05650
    457       2.00000          -3.530010          -96.05645
    458       2.00000          -3.529887          -96.05312
    459       2.00000          -3.529885          -96.05307
    460       2.00000          -3.529885          -96.05307
    461       2.00000          -3.529873          -96.05274
    462       2.00000          -3.529873          -96.05274
    463       2.00000          -3.529873          -96.05274
    464       2.00000          -3.529873          -96.05274
    465       2.00000          -3.529873          -96.05274
    466       2.00000          -3.529873          -96.05274
    467       2.00000          -3.529873          -96.05274
    468       2.00000          -3.529873          -96.05274
    469       2.00000          -3.529873          -96.05274
    470       2.00000          -3.529873          -96.05274
    471       2.00000          -3.529873          -96.05274
    472       2.00000          -3.529873          -96.05274
    473       2.00000          -3.529873          -96.05274
    474       2.00000          -3.529873          -96.05274
    475       2.00000          -3.529873          -96.05274
    476       2.00000          -3.529873          -96.05274
    477       2.00000          -3.529873          -96.05274
    478       2.00000          -3.529872          -96.05271
    479       2.00000          -3.529869          -96.05261
    480       2.00000          -3.529865          -96.05251
    481       2.00000          -3.529865          -96.05250
    482       2.00000          -3.529825          -96.05143
    483       2.00000          -3.529823          -96.05137
    484       2.00000          -3.529823          -96.05136
    485       2.00000          -3.529818          -96.05123
    486       2.00000          -3.529818          -96.05123
    487       2.00000          -3.529818          -96.05123
    488       2.00000          -3.529818          -96.05123
    489       2.00000          -3.529818          -96.05123
    490       2.00000          -3.529817          -96.05122
    491       2.00000          -3.529814          -96.05114
    492       2.00000          -3.529813          -96.05111
    493       2.00000          -3.529813          -96.05110
    494       2.00000          -3.529789          -96.05043
    495       2.00000          -3.529788          -96.05041
    496       2.00000          -3.529785          -96.05035
    497       2.00000          -3.529785          -96.05033
    498       2.00000          -3.529783          -96.05027
    499       2.00000          -3.529783          -96.05027
    500       2.00000          -3.529760          -96.04965
    501       2.00000          -3.529758          -96.04961
    502       2.00000          -3.529757          -96.04958
    503       2.00000          -3.529756          -96.04954
    504       2.00000          -3.529728          -96.04879
    505       2.00000          -3.529725          -96.04870
    506       2.00000          -3.529723          -96.04865
    507       2.00000          -3.529721          -96.04859
    508       2.00000          -3.529721          -96.04859
    509       2.00000          -3.529721          -96.04859
    510       2.00000          -3.529719          -96.04853
    511       2.00000          -3.529718          -96.04852
    512       2.00000          -3.529694          -96.04785
    513       2.00000          -3.529691          -96.04779
    514       2.00000          -3.529690          -96.04775
    515       2.00000          -3.529680          -96.04749
    516       2.00000          -3.529676          -96.04737
    517       2.00000          -3.529676          -96.04736
    518       2.00000          -3.529664          -96.04705
    519       2.00000          -3.529664          -96.04704
    520       2.00000          -3.529664          -96.04704
    521       2.00000          -3.529664          -96.04704
    522       2.00000          -3.529664          -96.04704
    523       2.00000          -3.529664          -96.04704
    524       2.00000          -3.529664          -96.04704
    525       2.00000          -3.529664          -96.04704
    526       2.00000          -3.529664          -96.04704
    527       2.00000          -3.529664          -96.04704
    528       2.00000          -3.529662          -96.04698
    529       2.00000          -3.529661          -96.04697
    530       2.00000          -3.529661          -96.04696
    531       2.00000          -3.529653          -96.04675
    532       2.00000          -3.529651          -96.04669
    533       2.00000          -3.529651          -96.04669
    534       2.00000          -3.529641          -96.04643
    535       2.00000          -3.529641          -96.04642
    536       2.00000          -3.529641          -96.04642
    537       2.00000          -3.529641          -96.04642
    538       2.00000          -3.529641          -96.04642
    539       2.00000          -3.529641          -96.04641
    540       2.00000          -3.529641          -96.04641
    541       2.00000          -3.529641          -96.04641
    542       2.00000          -3.529641          -96.04641
    543       2.00000          -3.529641          -96.04641
    544       2.00000          -3.529641          -96.04641
    545       2.00000          -3.529641          -96.04641
    546       2.00000          -3.529641          -96.04641
    547       2.00000          -3.529640          -96.04640
    548       2.00000          -3.529640          -96.04638
    549       2.00000          -3.529639          -96.04637
    550       2.00000          -3.529639          -96.04637
    551       2.00000          -3.529639          -96.04636
    552       2.00000          -3.529639          -96.04636
    553       2.00000          -3.529638          -96.04634
    554       2.00000          -3.529638          -96.04633
    555       2.00000          -3.529638          -96.04633
    556       2.00000          -3.529638          -96.04633
    557       2.00000          -3.529638          -96.04633
    558       2.00000          -3.529638          -96.04633
    559       2.00000          -3.529638          -96.04633
    560       2.00000          -3.529634          -96.04622
    561       2.00000          -3.529632          -96.04618
    562       2.00000          -3.529632          -96.04617
    563       2.00000          -3.529624          -96.04595
    564       2.00000          -3.529624          -96.04594
    565       2.00000          -3.529622          -96.04590
    566       2.00000          -3.529617          -96.04575
    567       2.00000          -3.529616          -96.04574
    568       2.00000          -3.529616          -96.04574
    569       2.00000          -3.529616          -96.04574
    570       2.00000          -3.529616          -96.04574
    571       2.00000          -3.529616          -96.04574
    572       2.00000          -3.529616          -96.04574
    573       2.00000          -3.529616          -96.04574
    574       2.00000          -3.529616          -96.04574
    575       2.00000          -3.529616          -96.04574
    576       2.00000          -3.529616          -96.04574
    577       2.00000          -3.529616          -96.04574
    578       2.00000          -3.529616          -96.04574
    579       2.00000          -3.529616          -96.04574
    580       2.00000          -3.529616          -96.04574
    581       2.00000          -3.529616          -96.04574
    582       2.00000          -3.529616          -96.04574
    583       2.00000          -3.529616          -96.04573
    584       2.00000          -3.529613          -96.04565
    585       2.00000          -3.529612          -96.04562
    586       2.00000          -3.529611          -96.04561
    587       2.00000          -3.529609          -96.04554
    588       2.00000          -3.529608          -96.04553
    589       2.00000          -3.529607          -96.04549
    590       2.00000          -3.529605          -96.04545
    591       2.00000          -3.529605          -96.04545
    592       2.00000          -3.529605          -96.04545
    593       2.00000          -3.529605          -96.04545
    594       2.00000          -3.529605          -96.04545
    595       2.00000          -3.529605          -96.04545
    596       2.00000          -3.529604          -96.04541
    597       2.00000          -3.529604          -96.04540
    598       2.00000          -3.529604          -96.04540
    599       2.00000          -3.529603          -96.04538
    600       2.00000          -3.529603          -96.04537
    601       2.00000          -3.529602          -96.04537
    602       2.00000          -3.529600          -96.04531
    603       2.00000          -3.529600          -96.04531
    604       2.00000          -3.529600          -96.04530
    605       2.00000          -3.529600          -96.04530
    606       2.00000          -3.529600          -96.04530
    607       2.00000          -3.529600          -96.04530
    608       2.00000          -3.529600          -96.04530
    609       2.00000          -3.529600          -96.04530
    610       2.00000          -3.529600          -96.04530
    611       2.00000          -3.529600          -96.04530
    612       2.00000          -3.529600          -96.04530
    613       2.00000          -3.529600          -96.04530
    614       2.00000          -3.529600          -96.04530
    615       2.00000          -3.529600          -96.04530
    616       2.00000          -3.529600          -96.04530
    617       2.00000          -3.529600          -96.04530
    618       2.00000          -3.529600          -96.04530
    619       2.00000          -3.529600          -96.04530
    620       2.00000          -3.529596          -96.04519
    621       2.00000          -3.529596          -96.04518
    622       2.00000          -3.529595          -96.04518
    623       2.00000          -3.529595          -96.04515
    624       2.00000          -3.529594          -96.04515
    625       2.00000          -3.529594          -96.04513
    626       2.00000          -3.529593          -96.04511
    627       2.00000          -3.529593          -96.04511
    628       2.00000          -3.529593          -96.04511
    629       2.00000          -3.529593          -96.04511
    630       2.00000          -3.529593          -96.04511
    631       2.00000          -3.529593          -96.04511
    632       2.00000          -3.529593          -96.04511
    633       2.00000          -3.529593          -96.04511
    634       2.00000          -3.529593          -96.04511
    635       2.00000          -3.529593          -96.04511
    636       2.00000          -3.529593          -96.04511
    637       2.00000          -3.529593          -96.04510
    638       2.00000          -3.529545          -96.04380
    639       2.00000          -3.529544          -96.04379
    640       2.00000          -3.529520          -96.04312
    641       2.00000          -0.668467          -18.18992
    642       2.00000          -0.639546          -17.40293
    643       2.00000          -0.639500          -17.40168
    644       2.00000          -0.639498          -17.40162
    645       2.00000          -0.639498          -17.40162
    646       2.00000          -0.639498          -17.40162
    647       2.00000          -0.639498          -17.40162
    648       2.00000          -0.639496          -17.40156
    649       2.00000          -0.639452          -17.40036
    650       2.00000          -0.629293          -17.12394
    651       2.00000          -0.629254          -17.12288
    652       2.00000          -0.629253          -17.12283
    653       2.00000          -0.629253          -17.12283
    654       2.00000          -0.629251          -17.12279
    655       2.00000          -0.629213          -17.12175
    656       2.00000          -0.594536          -16.17815
    657       2.00000          -0.594452          -16.17587
    658       2.00000          -0.594448          -16.17574
    659       2.00000          -0.594447          -16.17572
    660       2.00000          -0.594447          -16.17571
    661       2.00000          -0.594445          -16.17568
    662       2.00000          -0.594445          -16.17568
    663       2.00000          -0.594444          -16.17565
    664       2.00000          -0.594444          -16.17565
    665       2.00000          -0.594443          -16.17562
    666       2.00000          -0.594439          -16.17550
    667       2.00000          -0.594358          -16.17331
    668       2.00000          -0.584354          -15.90109
    669       2.00000          -0.584328          -15.90036
    670       2.00000          -0.584327          -15.90036
    671       2.00000          -0.584302          -15.89965
    672       2.00000          -0.570276          -15.51801
    673       2.00000          -0.570103          -15.51329
    674       2.00000          -0.570101          -15.51323
    675       2.00000          -0.570095          -15.51306
    676       2.00000          -0.570093          -15.51303
    677       2.00000          -0.570091          -15.51298
    678       2.00000          -0.570091          -15.51297
    679       2.00000          -0.570091          -15.51297
    680       2.00000          -0.570091          -15.51297
    681       2.00000          -0.570091          -15.51297
    682       2.00000          -0.570091          -15.51297
    683       2.00000          -0.570091          -15.51297
    684       2.00000          -0.570091          -15.51297
    685       2.00000          -0.570091          -15.51297
    686       2.00000          -0.570091          -15.51296
    687       2.00000          -0.570091          -15.51296
    688       2.00000          -0.570091          -15.51296
    689       2.00000          -0.570091          -15.51296
    690       2.00000          -0.570091          -15.51295
    691       2.00000          -0.570089          -15.51290
    692       2.00000          -0.570087          -15.51287
    693       2.00000          -0.570081          -15.51270
    694       2.00000          -0.570079          -15.51263
    695       2.00000          -0.569907          -15.50797
    696       2.00000          -0.518196          -14.10083
    697       2.00000          -0.518152          -14.09965
    698       2.00000          -0.518147          -14.09950
    699       2.00000          -0.518147          -14.09950
    700       2.00000          -0.518142          -14.09935
    701       2.00000          -0.518100          -14.09823
    702       2.00000          -0.512634          -13.94948
    703       2.00000          -0.512544          -13.94702
    704       2.00000          -0.512542          -13.94697
    705       2.00000          -0.512539          -13.94690
    706       2.00000          -0.512538          -13.94687
    707       2.00000          -0.512538          -13.94687
    708       2.00000          -0.512538          -13.94686
    709       2.00000          -0.512538          -13.94686
    710       2.00000          -0.512537          -13.94684
    711       2.00000          -0.512534          -13.94676
    712       2.00000          -0.512532          -13.94671
    713       2.00000          -0.512442          -13.94425
    714       2.00000          -0.485115          -13.20064
    715       2.00000          -0.485089          -13.19996
    716       2.00000          -0.485089          -13.19996
    717       2.00000          -0.485064          -13.19927
    718       2.00000          -0.465624          -12.67028
    719       2.00000          -0.465475          -12.66622
    720       2.00000          -0.465464          -12.66592
    721       2.00000          -0.465455          -12.66568
    722       2.00000          -0.465454          -12.66565
    723       2.00000          -0.465449          -12.66552
    724       2.00000          -0.465449          -12.66551
    725       2.00000          -0.465449          -12.66550
    726       2.00000          -0.465449          -12.66550
    727       2.00000          -0.465448          -12.66550
    728       2.00000          -0.465448          -12.66549
    729       2.00000          -0.465448          -12.66549
    730       2.00000          -0.465448          -12.66549
    731       2.00000          -0.465448          -12.66549
    732       2.00000          -0.465448          -12.66548
    733       2.00000          -0.465448          -12.66548
    734       2.00000          -0.465448          -12.66548
    735       2.00000          -0.465448          -12.66548
    736       2.00000          -0.465447          -12.66547
    737       2.00000          -0.465442          -12.66533
    738       2.00000          -0.465441          -12.66530
    739       2.00000          -0.465432          -12.66505
    740       2.00000          -0.465421          -12.66475
    741       2.00000          -0.465273          -12.66072
    742       2.00000          -0.432974          -11.78183
    743       2.00000          -0.432900          -11.77981
    744       2.00000          -0.432894          -11.77965
    745       2.00000          -0.432892          -11.77959
    746       2.00000          -0.432891          -11.77958
    747       2.00000          -0.432888          -11.77949
    748       2.00000          -0.432888          -11.77949
    749       2.00000          -0.432885          -11.77940
    750       2.00000          -0.432884          -11.77938
    751       2.00000          -0.432882          -11.77931
    752       2.00000          -0.432876          -11.77916
    753       2.00000          -0.432802          -11.77714
    754       2.00000          -0.375175          -10.20903
    755       2.00000          -0.375140          -10.20807
    756       2.00000          -0.375125          -10.20767
    757       2.00000          -0.375125          -10.20767
    758       2.00000          -0.375125          -10.20767
    759       2.00000          -0.375125          -10.20767
    760       2.00000          -0.375110          -10.20727
    761       2.00000          -0.375077          -10.20637
    762       2.00000          -0.369644          -10.05853
    763       2.00000          -0.369634          -10.05825
    764       2.00000          -0.369617          -10.05778
    765       2.00000          -0.369608          -10.05755
    766       2.00000          -0.369607          -10.05753
    767       2.00000          -0.369606          -10.05748
    768       2.00000          -0.369606          -10.05748
    769       2.00000          -0.369604          -10.05744
    770       2.00000          -0.369603          -10.05742
    771       2.00000          -0.369595          -10.05720
    772       2.00000          -0.369578          -10.05673
    773       2.00000          -0.369568          -10.05647
    774       2.00000          -0.366218           -9.96531
    775       2.00000          -0.366206           -9.96497
    776       2.00000          -0.366205           -9.96494
    777       2.00000          -0.366181           -9.96429
    778       2.00000          -0.366180           -9.96427
    779       2.00000          -0.366179           -9.96423
    780       2.00000          -0.366179           -9.96423
    781       2.00000          -0.366177           -9.96419
    782       2.00000          -0.366176           -9.96417
    783       2.00000          -0.366153           -9.96353
    784       2.00000          -0.366152           -9.96350
    785       2.00000          -0.366140           -9.96318
    786       2.00000          -0.362257           -9.85750
    787       2.00000          -0.362216           -9.85640
    788       2.00000          -0.362211           -9.85627
    789       2.00000          -0.362211           -9.85627
    790       2.00000          -0.362206           -9.85614
    791       2.00000          -0.362167           -9.85507
    792       2.00000          -0.358885           -9.76576
    793       2.00000          -0.358862           -9.76512
    794       2.00000          -0.358839           -9.76452
    795       2.00000          -0.358805           -9.76357
    796       2.00000          -0.358804           -9.76357
    797       2.00000          -0.358802           -9.76349
    798       2.00000          -0.358799           -9.76342
    799       2.00000          -0.358799           -9.76342
    800       2.00000          -0.358799           -9.76341
    801       2.00000          -0.358799           -9.76341
    802       2.00000          -0.358798           -9.76340
    803       2.00000          -0.358798           -9.76340
    804       2.00000          -0.358798           -9.76340
    805       2.00000          -0.358798           -9.76340
    806       2.00000          -0.358798           -9.76339
    807       2.00000          -0.358798           -9.76338
    808       2.00000          -0.358798           -9.76338
    809       2.00000          -0.358798           -9.76338
    810       2.00000          -0.358795           -9.76330
    811       2.00000          -0.358792           -9.76323
    812       2.00000          -0.358792           -9.76322
    813       2.00000          -0.358757           -9.76227
    814       2.00000          -0.358734           -9.76165
    815       2.00000          -0.358707           -9.76092
    816       2.00000          -0.334837           -9.11139
    817       2.00000          -0.334817           -9.11085
    818       2.00000          -0.334816           -9.11080
    819       2.00000          -0.334816           -9.11080
    820       2.00000          -0.334814           -9.11076
    821       2.00000          -0.334794           -9.11021
    822       2.00000          -0.311882           -8.48675
    823       2.00000          -0.311802           -8.48456
    824       2.00000          -0.311781           -8.48399
    825       2.00000          -0.311775           -8.48383
    826       2.00000          -0.311763           -8.48350
    827       2.00000          -0.311763           -8.48350
    828       2.00000          -0.311761           -8.48346
    829       2.00000          -0.311761           -8.48346
    830       2.00000          -0.311761           -8.48345
    831       2.00000          -0.311761           -8.48345
    832       2.00000          -0.311761           -8.48345
    833       2.00000          -0.311761           -8.48345
    834       2.00000          -0.311761           -8.48345
    835       2.00000          -0.311761           -8.48345
    836       2.00000          -0.311761           -8.48344
    837       2.00000          -0.311761           -8.48344
    838       2.00000          -0.311760           -8.48343
    839       2.00000          -0.311760           -8.48343
    840       2.00000          -0.311759           -8.48339
    841       2.00000          -0.311759           -8.48338
    842       2.00000          -0.311747           -8.48307
    843       2.00000          -0.311741           -8.48291
    844       2.00000          -0.311720           -8.48233
    845       2.00000          -0.311641           -8.48018
    846       2.00000          -0.300344           -8.17277
    847       2.00000          -0.300290           -8.17130
    848       2.00000          -0.300283           -8.17112
    849       2.00000          -0.300274           -8.17086
    850       2.00000          -0.300273           -8.17084
    851       2.00000          -0.300273           -8.17084
    852       2.00000          -0.300273           -8.17084
    853       2.00000          -0.300273           -8.17084
    854       2.00000          -0.300272           -8.17082
    855       2.00000          -0.300263           -8.17056
    856       2.00000          -0.300256           -8.17038
    857       2.00000          -0.300201           -8.16888
    858       2.00000          -0.280943           -7.64484
    859       2.00000          -0.280891           -7.64342
    860       2.00000          -0.280872           -7.64292
    861       2.00000          -0.280867           -7.64278
    862       2.00000          -0.280863           -7.64268
    863       2.00000          -0.280863           -7.64268
    864       2.00000          -0.280863           -7.64268
    865       2.00000          -0.280863           -7.64267
    866       2.00000          -0.280860           -7.64258
    867       2.00000          -0.280854           -7.64244
    868       2.00000          -0.280836           -7.64193
    869       2.00000          -0.280785           -7.64055
    870       2.00000          -0.276576           -7.52601
    871       2.00000          -0.276533           -7.52485
    872       2.00000          -0.276525           -7.52463
    873       2.00000          -0.276523           -7.52458
    874       2.00000          -0.276517           -7.52442
    875       2.00000          -0.276515           -7.52436
    876       2.00000          -0.276507           -7.52413
    877       2.00000          -0.276462           -7.52293
    878       2.00000          -0.260872           -7.09870
    879       2.00000          -0.260763           -7.09572
    880       2.00000          -0.260757           -7.09556
    881       2.00000          -0.260755           -7.09550
    882       2.00000          -0.260747           -7.09529
    883       2.00000          -0.260746           -7.09526
    884       2.00000          -0.260745           -7.09524
    885       2.00000          -0.260745           -7.09524
    886       2.00000          -0.260745           -7.09523
    887       2.00000          -0.260745           -7.09523
    888       2.00000          -0.260744           -7.09521
[...]
   1143       0.00000           0.032932            0.89613
   1144       0.00000           0.032943            0.89641
   1145       0.00000           0.032952            0.89666
   1146       0.00000           0.032965            0.89703
   1147       0.00000           0.047803            1.30078
   1148       0.00000           0.047840            1.30179
   1149       0.00000           0.047853            1.30215
   1150       0.00000           0.047853            1.30215
   1151       0.00000           0.047853            1.30216
   1152       0.00000           0.047853            1.30216
   1153       0.00000           0.047867            1.30253
   1154       0.00000           0.047904            1.30353
   1155       0.00000           0.065641            1.78618
   1156       0.00000           0.065644            1.78628
   1157       0.00000           0.065673            1.78706
   1158       0.00000           0.065679            1.78721
   1159       0.00000           0.065696            1.78767
   1160       0.00000           0.065696            1.78768
   1161       0.00000           0.065698            1.78773
   1162       0.00000           0.065698            1.78774
   1163       0.00000           0.065699            1.78777
   1164       0.00000           0.065700            1.78779
   1165       0.00000           0.065702            1.78784
   1166       0.00000           0.065702            1.78785
   1167       0.00000           0.065719            1.78831
   1168       0.00000           0.065724            1.78845
   1169       0.00000           0.065754            1.78925
   1170       0.00000           0.065757            1.78933
   1171       0.00000           0.073651            2.00414
   1172       0.00000           0.073651            2.00415
   1173       0.00000           0.089654            2.43960
   1174       0.00000           0.089687            2.44051
   1175       0.00000           0.089699            2.44083
   1176       0.00000           0.089699            2.44083
   1177       0.00000           0.089710            2.44115
   1178       0.00000           0.089743            2.44204
   1179       0.00000           0.123994            3.37406
   1180       0.00000           0.124007            3.37439
   1181       0.00000           0.124024            3.37488
   1182       0.00000           0.124024            3.37488
   1183       0.00000           0.124042            3.37536
   1184       0.00000           0.124054            3.37569
   1185       0.00000           0.126708            3.44791
   1186       0.00000           0.152145            4.14008
   1187       0.00000           0.152169            4.14072
   1188       0.00000           0.152173            4.14083
   1189       0.00000           0.152182            4.14109
   1190       0.00000           0.152186            4.14120
   1191       0.00000           0.152196            4.14147
   1192       0.00000           0.152196            4.14147
   1193       0.00000           0.152206            4.14173
   1194       0.00000           0.152210            4.14185
   1195       0.00000           0.152219            4.14210
   1196       0.00000           0.152223            4.14221
   1197       0.00000           0.152246            4.14283
   1198       0.00000           0.157746            4.29249
   1199       0.00000           0.157766            4.29303
   1200       0.00000           0.157774            4.29325
   1201       0.00000           0.157774            4.29326
   1202       0.00000           0.157782            4.29347
   1203       0.00000           0.157802            4.29402
   1204       0.00000           0.167686            4.56296
   1205       0.00000           0.167733            4.56426
   1206       0.00000           0.167733            4.56426
   1207       0.00000           0.167778            4.56548
   1208       0.00000           0.177276            4.82392
   1209       0.00000           0.177298            4.82453
   1210       0.00000           0.177346            4.82584
   1211       0.00000           0.177360            4.82622
   1212       0.00000           0.177371            4.82651
   1213       0.00000           0.177374            4.82660
   1214       0.00000           0.177378            4.82670
   1215       0.00000           0.177378            4.82671
   1216       0.00000           0.177379            4.82673


  Self-consistency cycle converged.

  End self-consistency iteration #    17  :  max(cpu_time)   wall_clock_time(cpu1)
  Time for this iteration                 :      307.910 s         308.642 s
  Charge density & force component update :      137.620 s         137.555 s
  Density mixing                          :        0.100 s           0.094 s
  Hartree multipole update                :        0.310 s           0.302 s
  Hartree multipole summation             :       43.840 s          44.047 s
  Integration                             :        7.260 s           7.260 s
  Solution of K.-S. eqns.                 :      118.830 s         118.912 s
  Total energy evaluation                 :        0.010 s           0.008 s
------------------------------------------------------------
 
  Energy and forces in a compact form:
  | Total energy uncorrected      :         -0.100455231966035E+07 eV
  | Total energy corrected        :         -0.100455231966035E+07 eV
  | Free energy                   :         -0.100455231966035E+07 eV
  Total atomic forces (unitary forces cleaned) [eV/Ang]:
  |   1         -0.166203387903986E-02         -0.953871044492862E-01         -0.953860667090025E-01
  |   2          0.146017425485853E-02          0.246937962898670E-02          0.246988029331981E-02
  |   3          0.190086542669608E-05          0.199754405692420E-03          0.198189047147812E-03
  |   4         -0.145058127881150E-02          0.243820131231562E-02          0.243883860821489E-02
  |   5          0.528946849607312E-03         -0.247351307945784E-02          0.520984298183741E-03
  |   6         -0.126838268705238E-03          0.210518392319999E-03          0.144620987024066E-03
  |   7          0.130794277758924E-03          0.145123391390904E-03          0.212631160824872E-03
  |   8         -0.543218627102986E-03          0.513148108211980E-03         -0.247864562336512E-02
  |   9          0.216208782250066E-03         -0.141666277382615E-02         -0.174109938443352E-04
  |  10         -0.167170134646075E-06          0.335116599466724E-03          0.334817719289769E-03
  |  11         -0.215403128978650E-03         -0.174554780566644E-04         -0.141362411562884E-02
  |  12          0.205455831491445E-05          0.346789351097394E-03          0.349455724101691E-03
  |  13          0.193612828613563E-02         -0.392929228631197E-02          0.191926742432592E-02
  |  14         -0.194215621826909E-02          0.191367709472999E-02         -0.392526038217238E-02
  |  15          0.743754276899068E-04          0.839983752123990E-04          0.277757426492517E-03
  |  16         -0.732272897904337E-04          0.272418394428878E-03          0.832904477315127E-04
  |  17          0.530375888508962E-03          0.521273274198958E-03         -0.247498884161372E-02
  |  18         -0.132225054104042E-03          0.143490261234844E-03          0.214236254720164E-03
  |  19          0.125319987905841E-03          0.208547316162873E-03          0.146175733769156E-03
  |  20         -0.541848870994616E-03         -0.247700804613313E-02          0.513046950480386E-03
  |  21          0.306513328081557E-03         -0.105669618103501E-03         -0.103735903481756E-03
  |  22         -0.980370757182341E-06          0.834888681960231E-04          0.893881360302543E-04
  |  23         -0.306748765491655E-03         -0.107686279791802E-03         -0.105595460421266E-03
  |  24          0.423587425476058E-05          0.167530057069954E-03          0.166350484726022E-03
  |  25          0.312775916941881E-03          0.267660003737120E-04         -0.164987160425743E-03
  |  26         -0.316120459786279E-03         -0.163154905477408E-03          0.244862247918363E-04
  |  27          0.105906384972893E-05          0.726903995251690E-04          0.103176962218541E-03
  |  28          0.106890005803703E-05          0.956564744018468E-04          0.713374197815252E-04
  |  29         -0.246698038926071E-05         -0.222774130382602E-04         -0.165452782829309E-04
  |  30         -0.261420880006991E-05          0.621687124499557E-04          0.168217773686556E-03
  |  31         -0.330052951456233E-05          0.722185154987326E-04          0.716892709279781E-04
  |  32          0.441568795446424E-05          0.165902624359672E-03          0.516703981491049E-04
  |  33          0.216454643653319E-03         -0.189627961352276E-04         -0.141940862514949E-02
  |  34         -0.455277572888147E-06          0.336260477717367E-03          0.334897518740846E-03
  |  35         -0.213428144830042E-03         -0.141146997616256E-02         -0.146989627050167E-04
  |  36         -0.123133916372101E-06          0.350070110474437E-03          0.346418482080465E-03
  |  37          0.315982238754558E-03         -0.164981717961959E-03          0.273511009392242E-04
  |  38         -0.313339510420095E-03          0.247498030155515E-04         -0.163480252881552E-03
  |  39         -0.149657717447247E-05          0.102391021489615E-03          0.722183097869005E-04
  |  40         -0.227203187811334E-05          0.724653174297782E-04          0.966133694389343E-04
  |  41          0.461439294092251E-06         -0.233475232879368E-03         -0.232785476412181E-03
  |  42          0.856272778502164E-05          0.800463414561040E-04          0.806599002127466E-04
  |  43          0.111711256185396E-06          0.749335064631883E-04          0.763240552217886E-04
  |  44         -0.403779313559654E-05          0.811143120616326E-04          0.822151448541215E-04
  |  45          0.379422641662484E-03         -0.101713212219565E-03         -0.255089600218431E-04
  |  46         -0.896181645606543E-05          0.809872793168760E-04          0.904481060687689E-04
  |  47          0.895201489835632E-05          0.947337620300927E-04          0.807331364643299E-04
  |  48         -0.367904490898879E-03         -0.255417152250270E-04         -0.103451293900802E-03
  |  49          0.193743221154889E-02          0.191859532339042E-02         -0.392903991647127E-02
  |  50         -0.194084387547222E-02         -0.392551785685931E-02          0.191433844257514E-02
  |  51          0.712790955489041E-04          0.277154866570595E-03          0.828993316874698E-04
  |  52         -0.757302566984091E-04          0.843087641585934E-04          0.273004875843644E-03
  |  53         -0.442254369608490E-05         -0.162054877595730E-04         -0.226851138568219E-04
  |  54         -0.338493825381976E-05          0.167184697638022E-03          0.606130365834578E-04
  |  55         -0.220029390385456E-05          0.730849268562879E-04          0.713625180343914E-04
  |  56          0.464738180524158E-05          0.532262580622924E-04          0.167054338357562E-03
  |  57          0.377735824066647E-03         -0.289624142571534E-04         -0.100904693745826E-03
  |  58         -0.904139015706207E-05          0.922072574169833E-04          0.803661179669152E-04
  |  59          0.863661426880237E-05          0.810995598396443E-04          0.926471092529488E-04
  |  60         -0.371838017184032E-03         -0.104087156219137E-03         -0.233030531692985E-04
  |  61          0.185782853009327E-03         -0.104847817473634E-03         -0.103714963878103E-03
  |  62          0.137911909828038E-05          0.172724614291208E-03          0.171238309365079E-03
  |  63         -0.186295336869799E-03         -0.100925484270494E-03         -0.997937239561484E-04
  |  64          0.138269315133499E-05          0.611505193120036E-04          0.628465016954646E-04
  |  65          0.334216145440663E-01          0.403475412147501E-01          0.403483897350953E-01
  |  66         -0.628818596557052E-03          0.225105671127557E-03          0.226768003708347E-03
  |  67          0.626138233856011E-03          0.219193534859071E-03          0.219506293653131E-03
  |  68         -0.319522338059036E-01          0.392693455197474E-01          0.392702326528231E-01
  |  69         -0.243092860175290E-03          0.133454762402393E-02         -0.173447339808654E-03
  |  70         -0.259922764543499E-05         -0.207680112366320E-03         -0.206899286123560E-03
  |  71          0.241424932074988E-03         -0.177185789474663E-03          0.132748290796400E-02
  |  72         -0.591506685813304E-05         -0.548932800515290E-03         -0.560483219983934E-03
  |  73          0.394739938061364E-03          0.196319827396605E-02          0.464499682697490E-03
  |  74         -0.400686351939066E-03          0.467533890406906E-03          0.195420924695272E-02
  |  75         -0.841264518656650E-04         -0.137992982117856E-03         -0.280070369602476E-03
  |  76          0.861927783286053E-04         -0.275185484950232E-03         -0.136117805827650E-03
  |  77          0.116325222999083E-03          0.704898966938832E-02          0.720719517092878E-02
  |  78         -0.924226175804382E-04         -0.193565793390042E-03         -0.468356455601683E-03
  |  79          0.150014757194204E-05         -0.504845040267199E-04         -0.511544973787969E-04
  |  80          0.899850497945792E-04         -0.466510759208064E-03         -0.191768426574624E-03
  |  81         -0.243077153446374E-03         -0.176020786792198E-03          0.133258932136442E-02
  |  82          0.364756976620321E-05         -0.207102513753681E-03         -0.207798294421373E-03
  |  83          0.239711917133006E-03          0.132980346268159E-02         -0.175599339998018E-03
  |  84         -0.585503352370286E-05         -0.558775814863767E-03         -0.550497216209652E-03
  |  85         -0.348088393468289E-03          0.139204855061009E-03          0.137109384731305E-03
  |  86          0.345457718593015E-03          0.137949272233347E-03          0.138732997637643E-03
  |  87         -0.598216020133812E-05         -0.138391033464311E-03         -0.138433820331748E-03
  |  88          0.108176948728588E-04         -0.131849873130783E-03         -0.132004918244701E-03
  |  89         -0.107415647778815E-05          0.686011957077648E-04          0.679031028525356E-04
  |  90         -0.338873857914870E-04         -0.424508372635453E-04         -0.120444395640804E-03
  |  91          0.179221147116817E-05         -0.889121244128558E-04         -0.887269695816604E-04
  |  92          0.307190691446971E-04         -0.116856973760492E-03         -0.490828209321320E-04
  |  93         -0.532363294610666E-03          0.218518531123634E-03         -0.274625030640556E-04
  |  94         -0.149522316607024E-04         -0.322512821606700E-04         -0.102771585614858E-03
  |  95          0.190231416955634E-04         -0.100565878764265E-03         -0.374753234354376E-04
  |  96          0.530923446167431E-03         -0.222226871095192E-04          0.223810131575859E-03
  |  97          0.397046094859910E-03          0.465527033497366E-03          0.196205883122637E-02
  |  98         -0.398154372397041E-03          0.195539584772196E-02          0.466452236941360E-03
  |  99         -0.863455431408695E-04         -0.279412468932506E-03         -0.137569509594410E-03
  | 100          0.839744645305390E-04         -0.136729448482244E-03         -0.275664346722302E-03
  | 101          0.498027774030152E-06          0.686111576529363E-04          0.678725216283715E-04
  | 102         -0.349676082068865E-04         -0.119210734840232E-03         -0.437239129060546E-04
  | 103          0.152492419115212E-06         -0.898060778087556E-04         -0.875549796337324E-04
  | 104          0.320018890544290E-04         -0.488632015615220E-04         -0.119247466621646E-03
  | 105         -0.307875453754854E-03          0.798702620050877E-04          0.792582318235804E-04
  | 106         -0.163742594953478E-04         -0.741445789689453E-04         -0.730574648575405E-04
  | 107          0.157866732869415E-04         -0.753138424805125E-04         -0.745512508008496E-04
  | 108          0.301787440236381E-03          0.782961935899670E-04          0.797760018765990E-04
  | 109         -0.218267979152248E-03          0.165746876568341E-03          0.289850897816115E-04
  | 110          0.144750433447224E-08         -0.828499921526688E-04         -0.837518876906728E-04
  | 111          0.216326314192802E-03          0.271590283192329E-04          0.166330718630867E-03
  | 112         -0.133842421163144E-05         -0.885500631278623E-04         -0.864453834809613E-04
  | 113          0.117106992455230E-03          0.720644646952724E-02          0.704964809067836E-02
  | 114         -0.915786101653765E-04         -0.468296814377820E-03         -0.194515968197714E-03
  | 115          0.197361904443620E-05         -0.505231673264983E-04         -0.510797973041019E-04
  | 116          0.908483050524361E-04         -0.190821415735299E-03         -0.466525611461017E-03
  | 117         -0.533659274010435E-03         -0.258081876452641E-04          0.218657345852621E-03
  | 118         -0.149155952568472E-04         -0.993888203388342E-04         -0.311762211910970E-04
  | 119          0.190683555900534E-04         -0.379785378016822E-04         -0.104859632746416E-03
  | 120          0.529716217904618E-03          0.223611850501716E-03         -0.243880015053216E-04
  | 121         -0.217672830769034E-03          0.309292260905839E-04          0.166643457448402E-03
  | 122          0.135567990302111E-05         -0.818676169666092E-04         -0.832836460974613E-04
  | 123          0.216810968558127E-03          0.165509537443894E-03          0.248103951003215E-04
  | 124         -0.215614954702267E-05         -0.873263782766956E-04         -0.873629657215269E-04
  | 125         -0.418294539077686E-03          0.697059597215046E-04          0.693844003124556E-04
  | 126          0.413308482651862E-03          0.657314970471596E-04          0.653490537004845E-04
  | 127         -0.125389074485796E-04         -0.771203921450083E-04         -0.742125662266567E-04
  | 128          0.139611181059127E-04         -0.741300757048197E-04         -0.724173514601009E-04
 

------------------------------------------------------------
          Leaving FHI-aims.
          Date     :  20090924, Time     :  100019.282

          Computational steps:
          | Number of self-consistency cycles          :           17

          Detailed time accounting                     :  max(cpu_time)   wall_clock_time(cpu1)
          | Total time                                 :     3362.680 s        3407.085 s
          | Preparation time                           :        0.450 s           0.443 s
          | Grid partitioning                          :        7.600 s           7.604 s
          | Preloading free-atom quantities on grid    :        8.820 s           8.828 s
          | Free-atom superposition energy             :        9.590 s           9.625 s
          | Total time for integrations                :      137.650 s         137.911 s
          | Total time for solution of K.-S. equations :     2442.280 s        2478.849 s
          | Total time for density & force components  :      356.800 s         357.112 s
          | Total time for mixing                      :        0.320 s           0.309 s
          | Total time for Hartree multipole update    :        5.320 s           5.294 s
          | Total time for Hartree multipole sum       :      390.500 s         391.366 s
          | Total time for total energy evaluation     :        0.120 s           0.089 s

          Have a nice day.
------------------------------------------------------------
