 *********************************************************
 *                                                       *
 *                  WELCOME TO ABACUS                    *
 *                                                       *
 *            'Atomic-orbital Based Ab-initio            *
 *                  Computation at UStc'                 *
 *                                                       *
 *          Website: http://abacus.ustc.edu.cn/          *
 *                                                       *
 *********************************************************
 Mon Jul 18 11:26:18 2022
 MAKE THE DIR         : OUT.ABACUS/
 UNIFORM GRID DIM     : 90 * 90 * 90
 UNIFORM GRID DIM(BIG): 90 * 90 * 90
 DONE(0.0591953  SEC) : SETUP UNITCELL
 DONE(0.0762966  SEC) : INIT K-POINTS
 ---------------------------------------------------------
 Self-consistent calculations for electrons
 ---------------------------------------------------------
 SPIN    KPOINTS         PROCESSORS  
 1       36              8           
 ---------------------------------------------------------
 Use plane wave basis
 ---------------------------------------------------------
 ELEMENT NATOM       XC          
 Al      32          
 ---------------------------------------------------------
 Initial plane wave basis and FFT box
 ---------------------------------------------------------
 DONE(0.0943999  SEC) : INIT PLANEWAVE
 DONE(0.134182   SEC) : INIT CHARGE
 MEMORY FOR PSI (MB)  : 172.492
 DONE(0.264528   SEC) : LOCAL POTENTIAL
 DONE(0.274519   SEC) : NON-LOCAL POTENTIAL
 START POTENTIAL      : atomic
 DONE(0.360893   SEC) : INIT POTENTIAL
 DONE(13.397     SEC) : INIT BASIS
 -------------------------------------------
 SELF-CONSISTENT : 
 -------------------------------------------
 ITER   ETOT(eV)       EDIFF(eV)      DRHO       TIME(s)    
 CG1    -2.018266e+03  0.000000e+00   1.806e-01  1.733e+02  
 CG2    -2.018253e+03  1.280875e-02   1.343e-02  5.978e+01  
 CG3    -2.018266e+03  -1.230611e-02  1.695e-04  6.503e+01  
 CG4    -2.018273e+03  -7.128246e-03  9.605e-04  1.349e+02  
 CG5    -2.018275e+03  -2.470117e-03  9.431e-04  1.090e+02  
 CG6    -2.018277e+03  -1.548126e-03  3.792e-05  9.129e+01  
 CG7    -2.018277e+03  -9.650275e-05  5.293e-07  7.998e+01  
 CG8    -2.018277e+03  -7.519853e-05  5.191e-07  1.379e+02  
 CG9    -2.018277e+03  -4.039296e-07  3.200e-07  8.448e+01  
 CG10   -2.018277e+03  -1.850996e-07  4.517e-08  6.919e+01  
 CG11   -2.018277e+03  -2.073130e-07  1.696e-08  1.110e+02  
 CG12   -2.018277e+03  5.269909e-08   5.601e-09  7.039e+01  
 ><><><><><><><><><><><><><><><><><><><><><><
 TOTAL-STRESS (KBAR):
 ><><><><><><><><><><><><><><><><><><><><><><
 -1.950e+00     -8.950e-11     -1.286e-10     
 -8.950e-11     -1.951e+00     5.901e-07      
 -1.286e-10     5.901e-07      -1.951e+00     
 TOTAL-PRESSURE: -1.950e+00 KBAR

  |CLASS_NAME---------|NAME---------------|TIME(Sec)-----|CALLS----|AVG------|PER%-------
                       total               1234.5         17        73        1e+02     %
   Run_pw              plane_wave_line     1234.5         1         1.2e+03   1e+02     %
   PW_Basis            recip2real          0.12745        79        0.0016    0.01      %
   Potential           v_of_rho            0.54791        13        0.042     0.044     %
   XC_Functional       v_xc                0.56685        15        0.038     0.046     %
   PW_Basis            real2recip          0.17407        122       0.0014    0.014     %
   wavefunc            wfcinit             13.021         1         13        1.1       %
   pp_cell_vnl         getvnl              8.1342         576       0.014     0.66      %
   WF_igk              get_sk              2.4525         24192     0.0001    0.2       %
   WF_atomic           atomic_wfc          0.54595        36        0.015     0.044     %
   Hamilt_PW           diagH_subspace      11.596         36        0.32      0.94      %
   Hamilt_PW           h_psi               1081.6         86741     0.012     88        %
   Hamilt_PW           vloc                209.26         86741     0.0024    17        %
   PW_Basis_K          recip2real          124.09         138442    0.0009    10        %
   PW_Basis_K          gathers_scatterp    40.47          138442    0.00029   3.3       %
   PW_Basis_K          real2recip          66.596         113885    0.00058   5.4       %
   PW_Basis_K          gatherp_scatters    15.539         113885    0.00014   1.3       %
   Hamilt_PW           vnl                 870.02         86741     0.01      70        %
   Hamilt_PW           add_nonlocal_pp     433.49         86741     0.005     35        %
   Hamilt              diagH_LAPACK        0.22914        36        0.0064    0.019     %
   Cell_PW             opt_cells_pw        1221.1         1         1.2e+03   99        %
   Ions                opt_ions_pw         1221.1         1         1.2e+03   99        %
   ESolver_KS_PW       Run                 1186.2         1         1.2e+03   96        %
   HSolverPW           solve               1185.5         13        91        96        %
   DiagoCG             diag                1102.1         468       2.4       89        %
   ElecStatePW         psiToRho            19.352         13        1.5       1.6       %
   Charge              rho_mpi             0.14826        13        0.011     0.012     %
   DiagoIterAssist     diagH_subspace      57.369         396       0.14      4.6       %
   DiagoIterAssist     diagH_LAPACK        0.32581        396       0.00082   0.026     %
   Forces              cal_force_nl        5.3906         1         5.4       0.44      %
   Stress_PW           cal_stress          29.335         1         29        2.4       %
   Stress_Func         stres_nl            28.998         1         29        2.3       %
 ----------------------------------------------------------------------------------------

 START  Time  : Mon Jul 18 11:26:18 2022
 FINISH Time  : Mon Jul 18 11:46:53 2022
 TOTAL  Time  : 1.2e+03
 SEE INFORMATION IN : OUT.ABACUS/
