
   OpenMP run-time library returned nthreads = 12
 operating system is UNIX !

 riper (hostname) : TURBOMOLE V7.3 ( 22142 ) 4 Jul 2018 at 18:12:42
 Copyright (C) 2018 TURBOMOLE GmbH, Karlsruhe


    2019-03-24 01:01:23.088

 Number of MKL threads:     12

   *************************************************************************
   supercell-001
   *************************************************************************



    *************************************************************************
    *************************************************************************
    ***            _            _                   _     _               ***
    ***           | |_ _  _ _ _| |__  ___ _ __  ___| |___( )___           ***
    ***           |  _| || | '_| '_ \/ _ \ '  \/ _ \ / -_)/(_-<           ***
    ***            \__|\_,_|_| |_.__/\___/_|_|_\___/_\___| /__/           ***
    ***                      ___   ___                                    ***
    ***             //   ) )    / /    //   ) ) //   / /  //   ) )        ***
    ***            //___/ /    / /    //___/ / //____    //___/ /         ***
    ***           / ___ (     / /    / ____ / / ____    / ___ (           ***
    ***          //   | |    / /    //       //        //   | |           ***
    ***         //    | | __/ /___ //       //____/ / //    | |           ***
    ***                                                                   ***
    *************************************************************************
    *************************************************************************
    *************************** PROGRAM RIPER *******************************
    ****** Density Functional Theory with periodic boundary conditions ******
    ******                                                             ******
    ****** Developed by the groups in Jena   (M. Sierka)               ******
    ******                        and Munich (A. Burow)                ******
    *************************************************************************


                               References:

    (1) General implementation:
        R. Lazarski, A. M. Burow, M. Sierka
        Density Functional Theory for Molecular and Periodic Systems Using
        Density Fitting and Continuous Fast Multipole Methods
        J. Chem. Theory Comput. 2015, 11, 3029-3041
        R. Lazarski, A. M. Burow, L. Grajciar, M. Sierka
        Density Functional Theory for Molecular and Periodic Systems Using
        Density Fitting and Continuous Fast Multipole Methods: Analytical
        Gradients
        J. Comput. Chem. 2016, 57, 2518–2526
    (2) DFT implementation:
        A. M. Burow, M. Sierka
        Linear Scaling Hierarchical Integration Scheme For the
        Exchange-Correlation Term in Molecular and Periodic Systems
        J. Chem. Theory Comput. 2011, 7, 3097-3104
    (3) RI/DF approximation:
        A. M. Burow, M. Sierka, F. Mohamed
        Resolution of Identity Approximation for the Coulomb Term in
        Molecular and Periodic Systems
        J. Chem. Phys. 2009, 131, 214101/1-214101/6
    (4) Low-Memory Iterative Density Fitting (LMIDF) method:
        L. Grajciar
        Low-Memory Iterative Density Fitting
        J. Comput. Chem. 2015, 36, 1521-1535



              +--------------------------------------------------+
              | Atomic coordinate, charge and isotop information |
              +--------------------------------------------------+

                    atomic coordinates            atom    charge  isotop
          2.60949092    2.58949092    2.58949092    si    14.000     0
         12.94745385    2.58949092    2.58949092    si    14.000     0
         23.30541679    2.58949092    2.58949092    si    14.000     0
          2.58949092   12.94745385    2.58949092    si    14.000     0
         12.94745385   12.94745385    2.58949092    si    14.000     0
         23.30541679   12.94745385    2.58949092    si    14.000     0
          2.58949092   23.30541679    2.58949092    si    14.000     0
         12.94745385   23.30541679    2.58949092    si    14.000     0
         23.30541679   23.30541679    2.58949092    si    14.000     0
          2.58949092    2.58949092   12.94745385    si    14.000     0
         12.94745385    2.58949092   12.94745385    si    14.000     0
         23.30541679    2.58949092   12.94745385    si    14.000     0
          2.58949092   12.94745385   12.94745385    si    14.000     0
         12.94745385   12.94745385   12.94745385    si    14.000     0
         23.30541679   12.94745385   12.94745385    si    14.000     0
          2.58949092   23.30541679   12.94745385    si    14.000     0
         12.94745385   23.30541679   12.94745385    si    14.000     0
         23.30541679   23.30541679   12.94745385    si    14.000     0
          2.58949092    2.58949092   23.30541679    si    14.000     0
         12.94745385    2.58949092   23.30541679    si    14.000     0
         23.30541679    2.58949092   23.30541679    si    14.000     0
          2.58949092   12.94745385   23.30541679    si    14.000     0
         12.94745385   12.94745385   23.30541679    si    14.000     0
         23.30541679   12.94745385   23.30541679    si    14.000     0
          2.58949092   23.30541679   23.30541679    si    14.000     0
         12.94745385   23.30541679   23.30541679    si    14.000     0
         23.30541679   23.30541679   23.30541679    si    14.000     0
         28.48439788   28.48439788    2.58949092    si    14.000     0
          7.76847201   28.48439788    2.58949092    si    14.000     0
         18.12643495   28.48439788    2.58949092    si    14.000     0
         28.48439788    7.76847201    2.58949092    si    14.000     0
          7.76847201    7.76847201    2.58949092    si    14.000     0
         18.12643495    7.76847201    2.58949092    si    14.000     0
         28.48439788   18.12643495    2.58949092    si    14.000     0
          7.76847201   18.12643495    2.58949092    si    14.000     0
         18.12643495   18.12643495    2.58949092    si    14.000     0
         28.48439788   28.48439788   12.94745385    si    14.000     0
          7.76847201   28.48439788   12.94745385    si    14.000     0
         18.12643495   28.48439788   12.94745385    si    14.000     0
         28.48439788    7.76847201   12.94745385    si    14.000     0
          7.76847201    7.76847201   12.94745385    si    14.000     0
         18.12643495    7.76847201   12.94745385    si    14.000     0
         28.48439788   18.12643495   12.94745385    si    14.000     0
          7.76847201   18.12643495   12.94745385    si    14.000     0
         18.12643495   18.12643495   12.94745385    si    14.000     0
         28.48439788   28.48439788   23.30541679    si    14.000     0
          7.76847201   28.48439788   23.30541679    si    14.000     0
         18.12643495   28.48439788   23.30541679    si    14.000     0
         28.48439788    7.76847201   23.30541679    si    14.000     0
          7.76847201    7.76847201   23.30541679    si    14.000     0
         18.12643495    7.76847201   23.30541679    si    14.000     0
         28.48439788   18.12643495   23.30541679    si    14.000     0
          7.76847201   18.12643495   23.30541679    si    14.000     0
         18.12643495   18.12643495   23.30541679    si    14.000     0
         28.48439788    2.58949092   28.48439788    si    14.000     0
          7.76847201    2.58949092   28.48439788    si    14.000     0
         18.12643495    2.58949092   28.48439788    si    14.000     0
         28.48439788   12.94745385   28.48439788    si    14.000     0
          7.76847201   12.94745385   28.48439788    si    14.000     0
         18.12643495   12.94745385   28.48439788    si    14.000     0
         28.48439788   23.30541679   28.48439788    si    14.000     0
          7.76847201   23.30541679   28.48439788    si    14.000     0
         18.12643495   23.30541679   28.48439788    si    14.000     0
         28.48439788    2.58949092    7.76847201    si    14.000     0
          7.76847201    2.58949092    7.76847201    si    14.000     0
         18.12643495    2.58949092    7.76847201    si    14.000     0
         28.48439788   12.94745385    7.76847201    si    14.000     0
          7.76847201   12.94745385    7.76847201    si    14.000     0
         18.12643495   12.94745385    7.76847201    si    14.000     0
         28.48439788   23.30541679    7.76847201    si    14.000     0
          7.76847201   23.30541679    7.76847201    si    14.000     0
         18.12643495   23.30541679    7.76847201    si    14.000     0
         28.48439788    2.58949092   18.12643495    si    14.000     0
          7.76847201    2.58949092   18.12643495    si    14.000     0
         18.12643495    2.58949092   18.12643495    si    14.000     0
         28.48439788   12.94745385   18.12643495    si    14.000     0
          7.76847201   12.94745385   18.12643495    si    14.000     0
         18.12643495   12.94745385   18.12643495    si    14.000     0
         28.48439788   23.30541679   18.12643495    si    14.000     0
          7.76847201   23.30541679   18.12643495    si    14.000     0
         18.12643495   23.30541679   18.12643495    si    14.000     0
          2.58949092   28.48439788   28.48439788    si    14.000     0
         12.94745385   28.48439788   28.48439788    si    14.000     0
         23.30541679   28.48439788   28.48439788    si    14.000     0
          2.58949092    7.76847201   28.48439788    si    14.000     0
         12.94745385    7.76847201   28.48439788    si    14.000     0
         23.30541679    7.76847201   28.48439788    si    14.000     0
          2.58949092   18.12643495   28.48439788    si    14.000     0
         12.94745385   18.12643495   28.48439788    si    14.000     0
         23.30541679   18.12643495   28.48439788    si    14.000     0
          2.58949092   28.48439788    7.76847201    si    14.000     0
         12.94745385   28.48439788    7.76847201    si    14.000     0
         23.30541679   28.48439788    7.76847201    si    14.000     0
          2.58949092    7.76847201    7.76847201    si    14.000     0
         12.94745385    7.76847201    7.76847201    si    14.000     0
         23.30541679    7.76847201    7.76847201    si    14.000     0
          2.58949092   18.12643495    7.76847201    si    14.000     0
         12.94745385   18.12643495    7.76847201    si    14.000     0
         23.30541679   18.12643495    7.76847201    si    14.000     0
          2.58949092   28.48439788   18.12643495    si    14.000     0
         12.94745385   28.48439788   18.12643495    si    14.000     0
         23.30541679   28.48439788   18.12643495    si    14.000     0
          2.58949092    7.76847201   18.12643495    si    14.000     0
         12.94745385    7.76847201   18.12643495    si    14.000     0
         23.30541679    7.76847201   18.12643495    si    14.000     0
          2.58949092   18.12643495   18.12643495    si    14.000     0
         12.94745385   18.12643495   18.12643495    si    14.000     0
         23.30541679   18.12643495   18.12643495    si    14.000     0
          0.00000000    0.00000000    0.00000000    si    14.000     0
         10.35796293    0.00000000    0.00000000    si    14.000     0
         20.71592587    0.00000000    0.00000000    si    14.000     0
          0.00000000   10.35796293    0.00000000    si    14.000     0
         10.35796293   10.35796293    0.00000000    si    14.000     0
         20.71592587   10.35796293    0.00000000    si    14.000     0
          0.00000000   20.71592587    0.00000000    si    14.000     0
         10.35796293   20.71592587    0.00000000    si    14.000     0
         20.71592587   20.71592587    0.00000000    si    14.000     0
          0.00000000    0.00000000   10.35796293    si    14.000     0
         10.35796293    0.00000000   10.35796293    si    14.000     0
         20.71592587    0.00000000   10.35796293    si    14.000     0
          0.00000000   10.35796293   10.35796293    si    14.000     0
         10.35796293   10.35796293   10.35796293    si    14.000     0
         20.71592587   10.35796293   10.35796293    si    14.000     0
          0.00000000   20.71592587   10.35796293    si    14.000     0
         10.35796293   20.71592587   10.35796293    si    14.000     0
         20.71592587   20.71592587   10.35796293    si    14.000     0
          0.00000000    0.00000000   20.71592587    si    14.000     0
         10.35796293    0.00000000   20.71592587    si    14.000     0
         20.71592587    0.00000000   20.71592587    si    14.000     0
          0.00000000   10.35796293   20.71592587    si    14.000     0
         10.35796293   10.35796293   20.71592587    si    14.000     0
         20.71592587   10.35796293   20.71592587    si    14.000     0
          0.00000000   20.71592587   20.71592587    si    14.000     0
         10.35796293   20.71592587   20.71592587    si    14.000     0
         20.71592587   20.71592587   20.71592587    si    14.000     0
          5.17898184    5.17898184    0.00000000    si    14.000     0
         15.53694477    5.17898184    0.00000000    si    14.000     0
         25.89490771    5.17898184    0.00000000    si    14.000     0
          5.17898184   15.53694477    0.00000000    si    14.000     0
         15.53694477   15.53694477    0.00000000    si    14.000     0
         25.89490771   15.53694477    0.00000000    si    14.000     0
          5.17898184   25.89490771    0.00000000    si    14.000     0
         15.53694477   25.89490771    0.00000000    si    14.000     0
         25.89490771   25.89490771    0.00000000    si    14.000     0
          5.17898184    5.17898184   10.35796293    si    14.000     0
         15.53694477    5.17898184   10.35796293    si    14.000     0
         25.89490771    5.17898184   10.35796293    si    14.000     0
          5.17898184   15.53694477   10.35796293    si    14.000     0
         15.53694477   15.53694477   10.35796293    si    14.000     0
         25.89490771   15.53694477   10.35796293    si    14.000     0
          5.17898184   25.89490771   10.35796293    si    14.000     0
         15.53694477   25.89490771   10.35796293    si    14.000     0
         25.89490771   25.89490771   10.35796293    si    14.000     0
          5.17898184    5.17898184   20.71592587    si    14.000     0
         15.53694477    5.17898184   20.71592587    si    14.000     0
         25.89490771    5.17898184   20.71592587    si    14.000     0
          5.17898184   15.53694477   20.71592587    si    14.000     0
         15.53694477   15.53694477   20.71592587    si    14.000     0
         25.89490771   15.53694477   20.71592587    si    14.000     0
          5.17898184   25.89490771   20.71592587    si    14.000     0
         15.53694477   25.89490771   20.71592587    si    14.000     0
         25.89490771   25.89490771   20.71592587    si    14.000     0
          5.17898184    0.00000000    5.17898184    si    14.000     0
         15.53694477    0.00000000    5.17898184    si    14.000     0
         25.89490771    0.00000000    5.17898184    si    14.000     0
          5.17898184   10.35796293    5.17898184    si    14.000     0
         15.53694477   10.35796293    5.17898184    si    14.000     0
         25.89490771   10.35796293    5.17898184    si    14.000     0
          5.17898184   20.71592587    5.17898184    si    14.000     0
         15.53694477   20.71592587    5.17898184    si    14.000     0
         25.89490771   20.71592587    5.17898184    si    14.000     0
          5.17898184    0.00000000   15.53694477    si    14.000     0
         15.53694477    0.00000000   15.53694477    si    14.000     0
         25.89490771    0.00000000   15.53694477    si    14.000     0
          5.17898184   10.35796293   15.53694477    si    14.000     0
         15.53694477   10.35796293   15.53694477    si    14.000     0
         25.89490771   10.35796293   15.53694477    si    14.000     0
          5.17898184   20.71592587   15.53694477    si    14.000     0
         15.53694477   20.71592587   15.53694477    si    14.000     0
         25.89490771   20.71592587   15.53694477    si    14.000     0
          5.17898184    0.00000000   25.89490771    si    14.000     0
         15.53694477    0.00000000   25.89490771    si    14.000     0
         25.89490771    0.00000000   25.89490771    si    14.000     0
          5.17898184   10.35796293   25.89490771    si    14.000     0
         15.53694477   10.35796293   25.89490771    si    14.000     0
         25.89490771   10.35796293   25.89490771    si    14.000     0
          5.17898184   20.71592587   25.89490771    si    14.000     0
         15.53694477   20.71592587   25.89490771    si    14.000     0
         25.89490771   20.71592587   25.89490771    si    14.000     0
          0.00000000    5.17898184    5.17898184    si    14.000     0
         10.35796293    5.17898184    5.17898184    si    14.000     0
         20.71592587    5.17898184    5.17898184    si    14.000     0
          0.00000000   15.53694477    5.17898184    si    14.000     0
         10.35796293   15.53694477    5.17898184    si    14.000     0
         20.71592587   15.53694477    5.17898184    si    14.000     0
          0.00000000   25.89490771    5.17898184    si    14.000     0
         10.35796293   25.89490771    5.17898184    si    14.000     0
         20.71592587   25.89490771    5.17898184    si    14.000     0
          0.00000000    5.17898184   15.53694477    si    14.000     0
         10.35796293    5.17898184   15.53694477    si    14.000     0
         20.71592587    5.17898184   15.53694477    si    14.000     0
          0.00000000   15.53694477   15.53694477    si    14.000     0
         10.35796293   15.53694477   15.53694477    si    14.000     0
         20.71592587   15.53694477   15.53694477    si    14.000     0
          0.00000000   25.89490771   15.53694477    si    14.000     0
         10.35796293   25.89490771   15.53694477    si    14.000     0
         20.71592587   25.89490771   15.53694477    si    14.000     0
          0.00000000    5.17898184   25.89490771    si    14.000     0
         10.35796293    5.17898184   25.89490771    si    14.000     0
         20.71592587    5.17898184   25.89490771    si    14.000     0
          0.00000000   15.53694477   25.89490771    si    14.000     0
         10.35796293   15.53694477   25.89490771    si    14.000     0
         20.71592587   15.53694477   25.89490771    si    14.000     0
          0.00000000   25.89490771   25.89490771    si    14.000     0
         10.35796293   25.89490771   25.89490771    si    14.000     0
         20.71592587   25.89490771   25.89490771    si    14.000     0

       center of nuclear mass  :   14.24229172   14.24219913   14.24219913
       center of nuclear charge:   14.24229172   14.24219913   14.24219913


              +--------------------------------------------------+
              | Periodic system found: PBC structure information |
              +--------------------------------------------------+

                           Cell parameters (au,deg.)
   +-------------------------------------------------------------------------
   |      |a|           |b|           |c|       alpha     beta    gamma      |
   +-------------------------------------------------------------------------
      31.07388880   31.07388880   31.07388880   90.000   90.000   90.000
   +-------------------------------------------------------------------------

       Volume of the unit cell (au):       30004.5296

       Shortest interatomic distance (bohr):           4.4736

       Periodicity in 3 dimensions

       Direct space cell vectors (au):
               a     31.07388880      0.00000000      0.00000000
               b      0.00000000     31.07388880      0.00000000
               c      0.00000000      0.00000000     31.07388880

       Reciprocal space cell vectors (au):
               a      0.20220145      0.00000000      0.00000000
               b      0.00000000      0.20220145      0.00000000
               c      0.00000000      0.00000000      0.20220145

              +--------------------------------------------------+
              |        Fractional crystal coordinates            |
              +--------------------------------------------------+

                atom            fractional coordinates
                  si    0.08397697    0.08333334    0.08333334
                  si    0.41666667    0.08333334    0.08333334
                  si    0.75000001    0.08333334    0.08333334
                  si    0.08333334    0.41666667    0.08333334
                  si    0.41666667    0.41666667    0.08333334
                  si    0.75000001    0.41666667    0.08333334
                  si    0.08333334    0.75000001    0.08333334
                  si    0.41666667    0.75000001    0.08333334
                  si    0.75000001    0.75000001    0.08333334
                  si    0.08333334    0.08333334    0.41666667
                  si    0.41666667    0.08333334    0.41666667
                  si    0.75000001    0.08333334    0.41666667
                  si    0.08333334    0.41666667    0.41666667
                  si    0.41666667    0.41666667    0.41666667
                  si    0.75000001    0.41666667    0.41666667
                  si    0.08333334    0.75000001    0.41666667
                  si    0.41666667    0.75000001    0.41666667
                  si    0.75000001    0.75000001    0.41666667
                  si    0.08333334    0.08333334    0.75000001
                  si    0.41666667    0.08333334    0.75000001
                  si    0.75000001    0.08333334    0.75000001
                  si    0.08333334    0.41666667    0.75000001
                  si    0.41666667    0.41666667    0.75000001
                  si    0.75000001    0.41666667    0.75000001
                  si    0.08333334    0.75000001    0.75000001
                  si    0.41666667    0.75000001    0.75000001
                  si    0.75000001    0.75000001    0.75000001
                  si    0.91666666    0.91666666    0.08333334
                  si    0.24999999    0.91666666    0.08333334
                  si    0.58333333    0.91666666    0.08333334
                  si    0.91666666    0.24999999    0.08333334
                  si    0.24999999    0.24999999    0.08333334
                  si    0.58333333    0.24999999    0.08333334
                  si    0.91666666    0.58333333    0.08333334
                  si    0.24999999    0.58333333    0.08333334
                  si    0.58333333    0.58333333    0.08333334
                  si    0.91666666    0.91666666    0.41666667
                  si    0.24999999    0.91666666    0.41666667
                  si    0.58333333    0.91666666    0.41666667
                  si    0.91666666    0.24999999    0.41666667
                  si    0.24999999    0.24999999    0.41666667
                  si    0.58333333    0.24999999    0.41666667
                  si    0.91666666    0.58333333    0.41666667
                  si    0.24999999    0.58333333    0.41666667
                  si    0.58333333    0.58333333    0.41666667
                  si    0.91666666    0.91666666    0.75000001
                  si    0.24999999    0.91666666    0.75000001
                  si    0.58333333    0.91666666    0.75000001
                  si    0.91666666    0.24999999    0.75000001
                  si    0.24999999    0.24999999    0.75000001
                  si    0.58333333    0.24999999    0.75000001
                  si    0.91666666    0.58333333    0.75000001
                  si    0.24999999    0.58333333    0.75000001
                  si    0.58333333    0.58333333    0.75000001
                  si    0.91666666    0.08333334    0.91666666
                  si    0.24999999    0.08333334    0.91666666
                  si    0.58333333    0.08333334    0.91666666
                  si    0.91666666    0.41666667    0.91666666
                  si    0.24999999    0.41666667    0.91666666
                  si    0.58333333    0.41666667    0.91666666
                  si    0.91666666    0.75000001    0.91666666
                  si    0.24999999    0.75000001    0.91666666
                  si    0.58333333    0.75000001    0.91666666
                  si    0.91666666    0.08333334    0.24999999
                  si    0.24999999    0.08333334    0.24999999
                  si    0.58333333    0.08333334    0.24999999
                  si    0.91666666    0.41666667    0.24999999
                  si    0.24999999    0.41666667    0.24999999
                  si    0.58333333    0.41666667    0.24999999
                  si    0.91666666    0.75000001    0.24999999
                  si    0.24999999    0.75000001    0.24999999
                  si    0.58333333    0.75000001    0.24999999
                  si    0.91666666    0.08333334    0.58333333
                  si    0.24999999    0.08333334    0.58333333
                  si    0.58333333    0.08333334    0.58333333
                  si    0.91666666    0.41666667    0.58333333
                  si    0.24999999    0.41666667    0.58333333
                  si    0.58333333    0.41666667    0.58333333
                  si    0.91666666    0.75000001    0.58333333
                  si    0.24999999    0.75000001    0.58333333
                  si    0.58333333    0.75000001    0.58333333
                  si    0.08333334    0.91666666    0.91666666
                  si    0.41666667    0.91666666    0.91666666
                  si    0.75000001    0.91666666    0.91666666
                  si    0.08333334    0.24999999    0.91666666
                  si    0.41666667    0.24999999    0.91666666
                  si    0.75000001    0.24999999    0.91666666
                  si    0.08333334    0.58333333    0.91666666
                  si    0.41666667    0.58333333    0.91666666
                  si    0.75000001    0.58333333    0.91666666
                  si    0.08333334    0.91666666    0.24999999
                  si    0.41666667    0.91666666    0.24999999
                  si    0.75000001    0.91666666    0.24999999
                  si    0.08333334    0.24999999    0.24999999
                  si    0.41666667    0.24999999    0.24999999
                  si    0.75000001    0.24999999    0.24999999
                  si    0.08333334    0.58333333    0.24999999
                  si    0.41666667    0.58333333    0.24999999
                  si    0.75000001    0.58333333    0.24999999
                  si    0.08333334    0.91666666    0.58333333
                  si    0.41666667    0.91666666    0.58333333
                  si    0.75000001    0.91666666    0.58333333
                  si    0.08333334    0.24999999    0.58333333
                  si    0.41666667    0.24999999    0.58333333
                  si    0.75000001    0.24999999    0.58333333
                  si    0.08333334    0.58333333    0.58333333
                  si    0.41666667    0.58333333    0.58333333
                  si    0.75000001    0.58333333    0.58333333
                  si    0.00000000    0.00000000    0.00000000
                  si    0.33333333    0.00000000    0.00000000
                  si    0.66666667    0.00000000    0.00000000
                  si    0.00000000    0.33333333    0.00000000
                  si    0.33333333    0.33333333    0.00000000
                  si    0.66666667    0.33333333    0.00000000
                  si    0.00000000    0.66666667    0.00000000
                  si    0.33333333    0.66666667    0.00000000
                  si    0.66666667    0.66666667    0.00000000
                  si    0.00000000    0.00000000    0.33333333
                  si    0.33333333    0.00000000    0.33333333
                  si    0.66666667    0.00000000    0.33333333
                  si    0.00000000    0.33333333    0.33333333
                  si    0.33333333    0.33333333    0.33333333
                  si    0.66666667    0.33333333    0.33333333
                  si    0.00000000    0.66666667    0.33333333
                  si    0.33333333    0.66666667    0.33333333
                  si    0.66666667    0.66666667    0.33333333
                  si    0.00000000    0.00000000    0.66666667
                  si    0.33333333    0.00000000    0.66666667
                  si    0.66666667    0.00000000    0.66666667
                  si    0.00000000    0.33333333    0.66666667
                  si    0.33333333    0.33333333    0.66666667
                  si    0.66666667    0.33333333    0.66666667
                  si    0.00000000    0.66666667    0.66666667
                  si    0.33333333    0.66666667    0.66666667
                  si    0.66666667    0.66666667    0.66666667
                  si    0.16666668    0.16666668    0.00000000
                  si    0.50000001    0.16666668    0.00000000
                  si    0.83333335    0.16666668    0.00000000
                  si    0.16666668    0.50000001    0.00000000
                  si    0.50000001    0.50000001    0.00000000
                  si    0.83333335    0.50000001    0.00000000
                  si    0.16666668    0.83333335    0.00000000
                  si    0.50000001    0.83333335    0.00000000
                  si    0.83333335    0.83333335    0.00000000
                  si    0.16666668    0.16666668    0.33333333
                  si    0.50000001    0.16666668    0.33333333
                  si    0.83333335    0.16666668    0.33333333
                  si    0.16666668    0.50000001    0.33333333
                  si    0.50000001    0.50000001    0.33333333
                  si    0.83333335    0.50000001    0.33333333
                  si    0.16666668    0.83333335    0.33333333
                  si    0.50000001    0.83333335    0.33333333
                  si    0.83333335    0.83333335    0.33333333
                  si    0.16666668    0.16666668    0.66666667
                  si    0.50000001    0.16666668    0.66666667
                  si    0.83333335    0.16666668    0.66666667
                  si    0.16666668    0.50000001    0.66666667
                  si    0.50000001    0.50000001    0.66666667
                  si    0.83333335    0.50000001    0.66666667
                  si    0.16666668    0.83333335    0.66666667
                  si    0.50000001    0.83333335    0.66666667
                  si    0.83333335    0.83333335    0.66666667
                  si    0.16666668    0.00000000    0.16666668
                  si    0.50000001    0.00000000    0.16666668
                  si    0.83333335    0.00000000    0.16666668
                  si    0.16666668    0.33333333    0.16666668
                  si    0.50000001    0.33333333    0.16666668
                  si    0.83333335    0.33333333    0.16666668
                  si    0.16666668    0.66666667    0.16666668
                  si    0.50000001    0.66666667    0.16666668
                  si    0.83333335    0.66666667    0.16666668
                  si    0.16666668    0.00000000    0.50000001
                  si    0.50000001    0.00000000    0.50000001
                  si    0.83333335    0.00000000    0.50000001
                  si    0.16666668    0.33333333    0.50000001
                  si    0.50000001    0.33333333    0.50000001
                  si    0.83333335    0.33333333    0.50000001
                  si    0.16666668    0.66666667    0.50000001
                  si    0.50000001    0.66666667    0.50000001
                  si    0.83333335    0.66666667    0.50000001
                  si    0.16666668    0.00000000    0.83333335
                  si    0.50000001    0.00000000    0.83333335
                  si    0.83333335    0.00000000    0.83333335
                  si    0.16666668    0.33333333    0.83333335
                  si    0.50000001    0.33333333    0.83333335
                  si    0.83333335    0.33333333    0.83333335
                  si    0.16666668    0.66666667    0.83333335
                  si    0.50000001    0.66666667    0.83333335
                  si    0.83333335    0.66666667    0.83333335
                  si    0.00000000    0.16666668    0.16666668
                  si    0.33333333    0.16666668    0.16666668
                  si    0.66666667    0.16666668    0.16666668
                  si    0.00000000    0.50000001    0.16666668
                  si    0.33333333    0.50000001    0.16666668
                  si    0.66666667    0.50000001    0.16666668
                  si    0.00000000    0.83333335    0.16666668
                  si    0.33333333    0.83333335    0.16666668
                  si    0.66666667    0.83333335    0.16666668
                  si    0.00000000    0.16666668    0.50000001
                  si    0.33333333    0.16666668    0.50000001
                  si    0.66666667    0.16666668    0.50000001
                  si    0.00000000    0.50000001    0.50000001
                  si    0.33333333    0.50000001    0.50000001
                  si    0.66666667    0.50000001    0.50000001
                  si    0.00000000    0.83333335    0.50000001
                  si    0.33333333    0.83333335    0.50000001
                  si    0.66666667    0.83333335    0.50000001
                  si    0.00000000    0.16666668    0.83333335
                  si    0.33333333    0.16666668    0.83333335
                  si    0.66666667    0.16666668    0.83333335
                  si    0.00000000    0.50000001    0.83333335
                  si    0.33333333    0.50000001    0.83333335
                  si    0.66666667    0.50000001    0.83333335
                  si    0.00000000    0.83333335    0.83333335
                  si    0.33333333    0.83333335    0.83333335
                  si    0.66666667    0.83333335    0.83333335

   * BASIS SET information:

              +--------------------------------------------------+
              |               basis set information              |
              +--------------------------------------------------+

              we will work with the 1s 3p 5d 7f 9g ... basis set
              ...i.e. with spherical basis functions...

   type   atoms  prim   cont   basis
   ---------------------------------------------------------------------------
    si     216     36     18   cry-SVP   [4s3p1d|10s7p1d]
   ---------------------------------------------------------------------------
   total:  216   7776   3888
   ---------------------------------------------------------------------------

   total number of primitive shells          :   18
   total number of contracted shells         : 1728
   total number of cartesian basis functions : 4104
   total number of SCF-basis functions       : 3888


   * AUXILIARY RI-J BASIS SET information:

              +--------------------------------------------------+
              |               basis set information              |
              +--------------------------------------------------+

              we will work with the 1s 3p 5d 7f 9g ... basis set
              ...i.e. with spherical basis functions...

   type   atoms  prim   cont   basis
   ---------------------------------------------------------------------------
    si     216     77     51   universal   [8s4p3d1f1g|14s5p5d2f1g]
   ---------------------------------------------------------------------------
   total:  216  16632  11016
   ---------------------------------------------------------------------------

   total number of primitive shells          :   27
   total number of contracted shells         : 3672
   total number of cartesian basis functions :13608
   total number of SCF-basis functions       :11016


              +--------------------------------------------------+
              |       Summary of SCF and related options         |
              +--------------------------------------------------+

       Energy and gradient calculation
       Translation/rotation projected out of the gradient vector
       Threshold for integrals neglect (differential overlap):    0.2456E-16
       Diagonalization of overlap matrices
       Threshold for neglect of eigenvalues of overlap matrices:   0.1000E-05
       Diagonalization method set to:                                2
       Maximum number of SCF iterations included in the DIIS:        4
       Automatic orbital shift for HOMO-LUMO gap below:           0.2000E+00

       Fractional occupation numbers with Gaussian smearing
         width of the smearing:                                   0.2000E-02

              +--------------------------------------------------+
              |                 K-POINT MESH                     |
              +--------------------------------------------------+

       Total number of k points used for density integration:      8
       Number of symmetry distinct k points used:                  4

       Reciprocal space cell vector (au):
               a      0.20220145      0.00000000      0.00000000
       Number of k-points along this vector:     2
       Fractional coordinates:
         -0.2500   0.2500

       Reciprocal space cell vector (au):
               b      0.00000000      0.20220145      0.00000000
       Number of k-points along this vector:     2
       Fractional coordinates:
         -0.2500   0.2500

       Reciprocal space cell vector (au):
               c      0.00000000      0.00000000      0.20220145
       Number of k-points along this vector:     2
       Fractional coordinates:
         -0.2500   0.2500

              +--------------------------------------------------+
              |      SCREENING OF BASIS FUNCTION PRODUCTS        |
              +--------------------------------------------------+

         Threshold for shell products neglect:          0.2E-16
         Tolerance for shell products extents:          0.1E-09
         Number of {mu,nu,L} shell products:             990826
         Number of primitive basis function products:   1628658


              +--------------------------------------------------+
              |             INITIAL ORBITALS/BANDS               |
              +--------------------------------------------------+


 reading orbital data $scfmo  from file mos
 orbital characterization : expanded

  Diagonalization of the overlap matrix requested
    Threshold for eigenvalues:    0.1000E-05
    Total number of vectors:        3888
    Largest eigenvalue:          0.4596E+01
    - for the k-point:                2
    Smallest eigenvalue:         0.2924E-02
    - for the k-point:                2
    Largest number of vectors:     3888
    - for the k-point:                1
    Smallest number of vectors:    3888
    - for the k-point:                1

  BANDS have been orthonormalized

              +--------------------------------------------------+
              |           DENSITY FUNCTIONAL THEORY              |
              +--------------------------------------------------+

       DFT calculation will be performed

 PBE functional
 exchange:    LDA + PBE
 correlation: LDA (PW) + PBE

              +--------------------------------------------------+
              |              NUMERICAL INTEGRATION               |
              +--------------------------------------------------+

       Will use smaller grid during SCF iterations and a grid
       of size 4 for the last iteration.

       Integration of exchange-correlation term is performed with
       Stratmann/Scuseria renormalization.
       Specified sharpness parameter is .64000D+00.
       Calculation of weight derivatives is switched OFF
       Maximum number of grid points per atom:             13610
       Total number of grid points of the system:          2363474

              +--------------------------------------------------+
              |        CONTINUOUS FAST MULTIPOLE METHOD          |
              +--------------------------------------------------+

   Continuous Fast Multipole Method for the Coulomb term
     order of multipole expansions:         20
     well-separateness criterion:         3.0000
     local multipole expansions switched on
     local expansions incremented by:        2
     total number of centers:           994714
     number of octree levels:                8
     number of boxes at all levels:      63878
     max. number of NF boxes per box:    16255
     length of the lowest level box:      1.2380
     length of the highest level box:   158.4582

   Periodic boundary conditions - crystal field construction:
     extent of the nuclei:             15.5369
     extent of dipole correction:      15.5369
     extent of electron density:       37.4089
     extent of auxiliary density:      31.5660
     final crystal field radius:      136.4756
     number of lattice vectors:          365


       FULL DIAGONALIZATION THE COULOMB METRICS MATRIX
       Max. eigenvalue of PQ matrix:         0.3594E+02
       Min. eigenvalue of PQ matrix:         0.4188E-07
       Neglect threshold for eigenvectors:   0.1000E-06
       Number of eigenvectors removed:               19
         ------------------ Fractional Occupations ----------------
           Fermi level           =             -0.2526634098
           Electrons(/UC)        =           3024.0000000000
           Current HOMO-LUMO gap =     0.22628E+01
         ----------------------------------------------------------

              +--------------------------------------------------+
              |                SCF iteration    1                |
              +--------------------------------------------------+

          Number of electrons from P*S  =  3023.99999999999591

          Numerical integration of the XC term:
          Number of electrons           =  3024.27036327002224

         ------------------ Fractional Occupations ----------------
           Fermi level           =              0.9312599569
           Electrons(/UC)        =           3024.0000000000
           Current HOMO-LUMO gap =     0.49838E+00
         ----------------------------------------------------------
          SCF energy change             = -6.244D+04
          Free energy change            = -6.244D+04
          new damping factor            =      1.500

              +--------------------------------------------------+
              | KINETIC ENERGY       =       62374.4238509533    |
              | COULOMB ENERGY       =     -120319.8497142643    |
              | EXCH. & CORR. ENERGY =       -4490.7556476704    |
              |==================================================|
              | TOTAL ENERGY         =      -62436.1815109815    |
              | T*S                  =          -0.0000000000    |
              | FREE  ENERGY         =      -62436.1815109815    |
              | ENERGY (sigma->0)    =      -62436.1815109815    |
              +--------------------------------------------------+


              +--------------------------------------------------+
              |                SCF iteration    2                |
              +--------------------------------------------------+

          Number of electrons from P*S  =  3023.99999999999636

          Numerical integration of the XC term:
          Number of electrons           =  3024.26078915754533

          Norm of current diis error    =  8.648D+00
         ------------------ Fractional Occupations ----------------
           Fermi level           =              1.1725055260
           Electrons(/UC)        =           3024.0000000000
           Current HOMO-LUMO gap =     0.23892E+00
         ----------------------------------------------------------
          RMS of difference density     =  1.988D-05
          SCF energy change             = -2.237D+01
          Free energy change            = -2.237D+01
          new damping factor            =      1.400

              +--------------------------------------------------+
              | KINETIC ENERGY       =       62333.9809315469    |
              | COULOMB ENERGY       =     -120303.5804202594    |
              | EXCH. & CORR. ENERGY =       -4488.9504891532    |
              |==================================================|
              | TOTAL ENERGY         =      -62458.5499778657    |
              | T*S                  =          -0.0000000000    |
              | FREE  ENERGY         =      -62458.5499778657    |
              | ENERGY (sigma->0)    =      -62458.5499778657    |
              +--------------------------------------------------+


              +--------------------------------------------------+
              |                SCF iteration    3                |
              +--------------------------------------------------+

          Number of electrons from P*S  =  3024.00000000000182

          Numerical integration of the XC term:
          Number of electrons           =  3024.25036747798276

          Norm of current diis error    =  5.932D+00
         ------------------ Fractional Occupations ----------------
           Fermi level           =              1.1476397246
           Electrons(/UC)        =           3024.0000000000
           Current HOMO-LUMO gap =     0.91163E-01
         ----------------------------------------------------------
          RMS of difference density     =  6.543D-06
          SCF energy change             = -7.240D+00
          Free energy change            = -7.240D+00
          new damping factor            =      1.200

              +--------------------------------------------------+
              | KINETIC ENERGY       =       62307.2571557206    |
              | COULOMB ENERGY       =     -120284.8866692334    |
              | EXCH. & CORR. ENERGY =       -4488.1600947248    |
              |==================================================|
              | TOTAL ENERGY         =      -62465.7896082376    |
              | T*S                  =          -0.0000000000    |
              | FREE  ENERGY         =      -62465.7896082376    |
              | ENERGY (sigma->0)    =      -62465.7896082376    |
              +--------------------------------------------------+


              +--------------------------------------------------+
              |                SCF iteration    4                |
              +--------------------------------------------------+

          Number of electrons from P*S  =  3024.00000000000136

          Numerical integration of the XC term:
          Number of electrons           =  3024.24121156432466

          Norm of current diis error    =  3.865D+00
         ------------------ Fractional Occupations ----------------
           Fermi level           =              0.9242348351
           Electrons(/UC)        =           3024.0000000000
           Current HOMO-LUMO gap =     0.10639E-02
         ----------------------------------------------------------
          RMS of difference density     =  7.307D-06
          SCF energy change             = -5.936D+00
          Free energy change            = -5.936D+00
          new damping factor            =      1.000

              +--------------------------------------------------+
              | KINETIC ENERGY       =       62286.5312449309    |
              | COULOMB ENERGY       =     -120270.5223818384    |
              | EXCH. & CORR. ENERGY =       -4487.7344052880    |
              |==================================================|
              | TOTAL ENERGY         =      -62471.7255421954    |
              | T*S                  =          -0.0000000000    |
              | FREE  ENERGY         =      -62471.7255421954    |
              | ENERGY (sigma->0)    =      -62471.7255421954    |
              +--------------------------------------------------+


              +--------------------------------------------------+
              |                SCF iteration    5                |
              +--------------------------------------------------+

          Number of electrons from P*S  =  3024.00000000000000

          Numerical integration of the XC term:
          Number of electrons           =  3024.23345357016660

          Norm of current diis error    =  2.803D+00
         ------------------ Fractional Occupations ----------------
           Fermi level           =              0.6050138875
           Electrons(/UC)        =           3024.0000000000
           Current HOMO-LUMO gap =     0.19162E-03
         ----------------------------------------------------------
          RMS of difference density     =  8.417D-06
          SCF energy change             = -4.847D+00
          Free energy change            = -4.848D+00
          new damping factor            =      0.800

              +--------------------------------------------------+
              | KINETIC ENERGY       =       62269.8500736920    |
              | COULOMB ENERGY       =     -120258.9037482440    |
              | EXCH. & CORR. ENERGY =       -4487.5192609892    |
              |==================================================|
              | TOTAL ENERGY         =      -62476.5729355413    |
              | T*S                  =          -0.0009160479    |
              | FREE  ENERGY         =      -62476.5738515892    |
              | ENERGY (sigma->0)    =      -62476.5733935653    |
              +--------------------------------------------------+


              +--------------------------------------------------+
              |                SCF iteration    6                |
              +--------------------------------------------------+

          Number of electrons from P*S  =  3023.99999999980537

          Numerical integration of the XC term:
          Number of electrons           =  3024.21464210659269

          Norm of current diis error    =  3.755D+00
         ------------------ Fractional Occupations ----------------
           Fermi level           =              0.4327977165
           Electrons(/UC)        =           3024.0000000000
           Current HOMO-LUMO gap =     0.20209E-02
         ----------------------------------------------------------
          RMS of difference density     =  2.265D-05
          SCF energy change             = -5.556D+00
          Free energy change            = -5.558D+00
          new damping factor            =      0.600

              +--------------------------------------------------+
              | KINETIC ENERGY       =       62257.0242852989    |
              | COULOMB ENERGY       =     -120250.9046086036    |
              | EXCH. & CORR. ENERGY =       -4488.2490341052    |
              |==================================================|
              | TOTAL ENERGY         =      -62482.1293574098    |
              | T*S                  =          -0.0022906877    |
              | FREE  ENERGY         =      -62482.1316480975    |
              | ENERGY (sigma->0)    =      -62482.1305027537    |
              +--------------------------------------------------+


              +--------------------------------------------------+
              |                SCF iteration    7                |
              +--------------------------------------------------+

          Number of electrons from P*S  =  3024.00000000000864

          Numerical integration of the XC term:
          Number of electrons           =  3024.20111035788477

          Norm of current diis error    =  1.421D+00
         ------------------ Fractional Occupations ----------------
           Fermi level           =              0.0795093402
           Electrons(/UC)        =           3024.0000000000
           Current HOMO-LUMO gap =     0.18842E-02
         ----------------------------------------------------------
          RMS of difference density     =  1.182D-05
          SCF energy change             = -3.819D+00
          Free energy change            = -3.817D+00
          new damping factor            =      0.400

              +--------------------------------------------------+
              | KINETIC ENERGY       =       62253.4171902715    |
              | COULOMB ENERGY       =     -120250.2843448222    |
              | EXCH. & CORR. ENERGY =       -4489.0809519665    |
              |==================================================|
              | TOTAL ENERGY         =      -62485.9481065171    |
              | T*S                  =          -0.0010087521    |
              | FREE  ENERGY         =      -62485.9491152692    |
              | ENERGY (sigma->0)    =      -62485.9486108932    |
              +--------------------------------------------------+


              +--------------------------------------------------+
              |                SCF iteration    8                |
              +--------------------------------------------------+

          Number of electrons from P*S  =  3024.00000000001273

          Numerical integration of the XC term:
          Number of electrons           =  3024.19614770773023

          Norm of current diis error    =  1.099D+00
         ------------------ Fractional Occupations ----------------
           Fermi level           =             -0.1150758126
           Electrons(/UC)        =           3024.0000000000
           Current HOMO-LUMO gap =     0.18200E-01
         ----------------------------------------------------------
          RMS of difference density     =  5.496D-06
          SCF energy change             = -1.305D+00
          Free energy change            = -1.306D+00
          new damping factor            =      0.200

              +--------------------------------------------------+
              | KINETIC ENERGY       =       62247.9338824974    |
              | COULOMB ENERGY       =     -120246.0044565499    |
              | EXCH. & CORR. ENERGY =       -4489.1826004023    |
              |==================================================|
              | TOTAL ENERGY         =      -62487.2531744549    |
              | T*S                  =          -0.0014528564    |
              | FREE  ENERGY         =      -62487.2546273113    |
              | ENERGY (sigma->0)    =      -62487.2539008831    |
              +--------------------------------------------------+


              +--------------------------------------------------+
              |                SCF iteration    9                |
              +--------------------------------------------------+

          Number of electrons from P*S  =  3024.00000000000955

          Numerical integration of the XC term:
          Number of electrons           =  3024.19365146840482

          Norm of current diis error    =  7.236D-01
         ------------------ Fractional Occupations ----------------
           Fermi level           =             -0.1783325025
           Electrons(/UC)        =           3024.0000000000
           Current HOMO-LUMO gap =     0.24084E-01
         ----------------------------------------------------------
          RMS of difference density     =  3.057D-06
          SCF energy change             = -5.341D-01
          Free energy change            = -5.326D-01
          new damping factor            =      0.100

              +--------------------------------------------------+
              | KINETIC ENERGY       =       62245.5278641899    |
              | COULOMB ENERGY       =     -120244.0675457306    |
              | EXCH. & CORR. ENERGY =       -4489.2475767411    |
              |==================================================|
              | TOTAL ENERGY         =      -62487.7872582819    |
              | T*S                  =          -0.0000000000    |
              | FREE  ENERGY         =      -62487.7872582819    |
              | ENERGY (sigma->0)    =      -62487.7872582819    |
              +--------------------------------------------------+


              +--------------------------------------------------+
              |                SCF iteration   10                |
              +--------------------------------------------------+

          Number of electrons from P*S  =  3024.00000000001819

          Numerical integration of the XC term:
          Number of electrons           =  3024.19284660750782

          Norm of current diis error    =  6.654D-01
         ------------------ Fractional Occupations ----------------
           Fermi level           =             -0.1944016464
           Electrons(/UC)        =           3024.0000000000
           Current HOMO-LUMO gap =     0.25979E-01
         ----------------------------------------------------------
          RMS of difference density     =  1.689D-06
          SCF energy change             = -1.672D-01
          Free energy change            = -1.672D-01
          new damping factor            =      0.100

              +--------------------------------------------------+
              | KINETIC ENERGY       =       62244.9748695533    |
              | COULOMB ENERGY       =     -120243.6262620799    |
              | EXCH. & CORR. ENERGY =       -4489.3030425016    |
              |==================================================|
              | TOTAL ENERGY         =      -62487.9544350282    |
              | T*S                  =          -0.0000000000    |
              | FREE  ENERGY         =      -62487.9544350282    |
              | ENERGY (sigma->0)    =      -62487.9544350282    |
              +--------------------------------------------------+


              +--------------------------------------------------+
              |                SCF iteration   11                |
              +--------------------------------------------------+

          Number of electrons from P*S  =  3024.00000000001410

          Numerical integration of the XC term:
          Number of electrons           =  3024.19253446885068

          Norm of current diis error    =  5.458D-01
         ------------------ Fractional Occupations ----------------
           Fermi level           =             -0.1842505967
           Electrons(/UC)        =           3024.0000000000
           Current HOMO-LUMO gap =     0.28954E-01
         ----------------------------------------------------------
          RMS of difference density     =  1.087D-06
          SCF energy change             = -6.681D-02
          Free energy change            = -6.681D-02
          new damping factor            =      0.100

              +--------------------------------------------------+
              | KINETIC ENERGY       =       62244.9500029181    |
              | COULOMB ENERGY       =     -120243.6325826310    |
              | EXCH. & CORR. ENERGY =       -4489.3386702439    |
              |==================================================|
              | TOTAL ENERGY         =      -62488.0212499568    |
              | T*S                  =          -0.0000000000    |
              | FREE  ENERGY         =      -62488.0212499568    |
              | ENERGY (sigma->0)    =      -62488.0212499568    |
              +--------------------------------------------------+


              +--------------------------------------------------+
              |                SCF iteration   12                |
              +--------------------------------------------------+

          Number of electrons from P*S  =  3024.00000000000546

          Numerical integration of the XC term:
          Number of electrons           =  3024.19235384578951

          Norm of current diis error    =  4.543D-01
         ------------------ Fractional Occupations ----------------
           Fermi level           =             -0.1827696074
           Electrons(/UC)        =           3024.0000000000
           Current HOMO-LUMO gap =     0.30806E-01
         ----------------------------------------------------------
          RMS of difference density     =  7.697D-07
          SCF energy change             = -2.690D-02
          Free energy change            = -2.690D-02
          new damping factor            =      0.100

              +--------------------------------------------------+
              | KINETIC ENERGY       =       62244.9463454111    |
              | COULOMB ENERGY       =     -120243.6378639936    |
              | EXCH. & CORR. ENERGY =       -4489.3566278002    |
              |==================================================|
              | TOTAL ENERGY         =      -62488.0481463828    |
              | T*S                  =          -0.0000000000    |
              | FREE  ENERGY         =      -62488.0481463828    |
              | ENERGY (sigma->0)    =      -62488.0481463828    |
              +--------------------------------------------------+


              +--------------------------------------------------+
              |                SCF iteration   13                |
              +--------------------------------------------------+

          Number of electrons from P*S  =  3024.00000000000273

          Numerical integration of the XC term:
          Number of electrons           =  3024.19230795118528

          Norm of current diis error    =  2.229D-01
         ------------------ Fractional Occupations ----------------
           Fermi level           =             -0.1864447897
           Electrons(/UC)        =           3024.0000000000
           Current HOMO-LUMO gap =     0.31959E-01
         ----------------------------------------------------------
          RMS of difference density     =  4.744D-07
          SCF energy change             = -2.374D-02
          Free energy change            = -2.374D-02
          new damping factor            =      0.100

              +--------------------------------------------------+
              | KINETIC ENERGY       =       62244.8835665197    |
              | COULOMB ENERGY       =     -120243.5983975455    |
              | EXCH. & CORR. ENERGY =       -4489.3570539132    |
              |==================================================|
              | TOTAL ENERGY         =      -62488.0718849391    |
              | T*S                  =          -0.0000000000    |
              | FREE  ENERGY         =      -62488.0718849391    |
              | ENERGY (sigma->0)    =      -62488.0718849391    |
              +--------------------------------------------------+


              +--------------------------------------------------+
              |                SCF iteration   14                |
              +--------------------------------------------------+

          Number of electrons from P*S  =  3023.99999999999818

          Numerical integration of the XC term:
          Number of electrons           =  3024.19231745318029

          Norm of current diis error    =  1.020D-01
         ------------------ Fractional Occupations ----------------
           Fermi level           =             -0.1842398517
           Electrons(/UC)        =           3024.0000000000
           Current HOMO-LUMO gap =     0.32273E-01
         ----------------------------------------------------------
          RMS of difference density     =  2.710D-07
          SCF energy change             = -6.818D-03
          Free energy change            = -6.818D-03
          new damping factor            =      0.100

              +--------------------------------------------------+
              | KINETIC ENERGY       =       62244.8044769298    |
              | COULOMB ENERGY       =     -120243.5316618420    |
              | EXCH. & CORR. ENERGY =       -4489.3515182348    |
              |==================================================|
              | TOTAL ENERGY         =      -62488.0787031471    |
              | T*S                  =          -0.0000000000    |
              | FREE  ENERGY         =      -62488.0787031471    |
              | ENERGY (sigma->0)    =      -62488.0787031471    |
              +--------------------------------------------------+


              +--------------------------------------------------+
              |                SCF iteration   15                |
              +--------------------------------------------------+

          Number of electrons from P*S  =  3024.00000000000091

          Numerical integration of the XC term:
          Number of electrons           =  3024.19232506875778

          Norm of current diis error    =  6.848D-02
         ------------------ Fractional Occupations ----------------
           Fermi level           =             -0.1858421103
           Electrons(/UC)        =           3024.0000000000
           Current HOMO-LUMO gap =     0.32416E-01
         ----------------------------------------------------------
          RMS of difference density     =  1.459D-07
          SCF energy change             = -1.532D-03
          Free energy change            = -1.532D-03
          new damping factor            =      0.100

              +--------------------------------------------------+
              | KINETIC ENERGY       =       62244.7751199261    |
              | COULOMB ENERGY       =     -120243.5060434304    |
              | EXCH. & CORR. ENERGY =       -4489.3493116649    |
              |==================================================|
              | TOTAL ENERGY         =      -62488.0802351692    |
              | T*S                  =          -0.0000000000    |
              | FREE  ENERGY         =      -62488.0802351692    |
              | ENERGY (sigma->0)    =      -62488.0802351692    |
              +--------------------------------------------------+


              +--------------------------------------------------+
              |                SCF iteration   16                |
              +--------------------------------------------------+

          Number of electrons from P*S  =  3023.99999999999500

          Numerical integration of the XC term:
          Number of electrons           =  3024.19232437960181

          Norm of current diis error    =  6.328D-02
         ------------------ Fractional Occupations ----------------
           Fermi level           =             -0.1852388371
           Electrons(/UC)        =           3024.0000000000
           Current HOMO-LUMO gap =     0.32546E-01
         ----------------------------------------------------------
          RMS of difference density     =  9.932D-08
          SCF energy change             = -5.105D-04
          Free energy change            = -5.105D-04
          new damping factor            =      0.100

              +--------------------------------------------------+
              | KINETIC ENERGY       =       62244.7757745513    |
              | COULOMB ENERGY       =     -120243.5068792626    |
              | EXCH. & CORR. ENERGY =       -4489.3496409467    |
              |==================================================|
              | TOTAL ENERGY         =      -62488.0807456581    |
              | T*S                  =          -0.0000000000    |
              | FREE  ENERGY         =      -62488.0807456581    |
              | ENERGY (sigma->0)    =      -62488.0807456581    |
              +--------------------------------------------------+


              +--------------------------------------------------+
              |                SCF iteration   17                |
              +--------------------------------------------------+

          Number of electrons from P*S  =  3023.99999999999545

          Numerical integration of the XC term:
          Number of electrons           =  3024.19232184199336

          Norm of current diis error    =  2.291D-02
         ------------------ Fractional Occupations ----------------
           Fermi level           =             -0.1854753206
           Electrons(/UC)        =           3024.0000000000
           Current HOMO-LUMO gap =     0.32618E-01
         ----------------------------------------------------------
          RMS of difference density     =  6.415D-08
          SCF energy change             = -5.799D-04
          Free energy change            = -5.799D-04
          new damping factor            =      0.100

              +--------------------------------------------------+
              | KINETIC ENERGY       =       62244.7781844898    |
              | COULOMB ENERGY       =     -120243.5094151907    |
              | EXCH. & CORR. ENERGY =       -4489.3500948246    |
              |==================================================|
              | TOTAL ENERGY         =      -62488.0813255254    |
              | T*S                  =          -0.0000000000    |
              | FREE  ENERGY         =      -62488.0813255254    |
              | ENERGY (sigma->0)    =      -62488.0813255254    |
              +--------------------------------------------------+


              +--------------------------------------------------+
              |                SCF iteration   18                |
              +--------------------------------------------------+

          Number of electrons from P*S  =  3023.99999999999545

          Numerical integration of the XC term:
          Number of electrons           =  3024.19231970972260

          Norm of current diis error    =  2.156D-02
         ------------------ Fractional Occupations ----------------
           Fermi level           =             -0.1853247681
           Electrons(/UC)        =           3024.0000000000
           Current HOMO-LUMO gap =     0.32643E-01
         ----------------------------------------------------------
          RMS of difference density     =  3.900D-08
          SCF energy change             = -9.675D-05
          Free energy change            = -9.675D-05
          new damping factor            =      0.100

              +--------------------------------------------------+
              | KINETIC ENERGY       =       62244.7819248897    |
              | COULOMB ENERGY       =     -120243.5127826408    |
              | EXCH. & CORR. ENERGY =       -4489.3505645291    |
              |==================================================|
              | TOTAL ENERGY         =      -62488.0814222801    |
              | T*S                  =          -0.0000000000    |
              | FREE  ENERGY         =      -62488.0814222801    |
              | ENERGY (sigma->0)    =      -62488.0814222801    |
              +--------------------------------------------------+


              +--------------------------------------------------+
              |                SCF iteration   19                |
              +--------------------------------------------------+

          Number of electrons from P*S  =  3023.99999999999454

          Numerical integration of the XC term:
          Number of electrons           =  3024.19231875767491

          Norm of current diis error    =  1.217D-02
         ------------------ Fractional Occupations ----------------
           Fermi level           =             -0.1849948732
           Electrons(/UC)        =           3024.0000000000
           Current HOMO-LUMO gap =     0.32655E-01
         ----------------------------------------------------------
          RMS of difference density     =  2.653D-08
          SCF energy change             = -8.425D-05
          Free energy change            = -8.425D-05
          new damping factor            =      0.100

              +--------------------------------------------------+
              | KINETIC ENERGY       =       62244.7818650354    |
              | COULOMB ENERGY       =     -120243.5127249770    |
              | EXCH. & CORR. ENERGY =       -4489.3506465857    |
              |==================================================|
              | TOTAL ENERGY         =      -62488.0815065274    |
              | T*S                  =          -0.0000000000    |
              | FREE  ENERGY         =      -62488.0815065274    |
              | ENERGY (sigma->0)    =      -62488.0815065274    |
              +--------------------------------------------------+


              +--------------------------------------------------+
              |                SCF iteration   20                |
              +--------------------------------------------------+

          Number of electrons from P*S  =  3023.99999999999454

          Numerical integration of the XC term:
          Number of electrons           =  3024.19231843646821

          Norm of current diis error    =  1.198D-02
         ------------------ Fractional Occupations ----------------
           Fermi level           =             -0.1851449396
           Electrons(/UC)        =           3024.0000000000
           Current HOMO-LUMO gap =     0.32665E-01
         ----------------------------------------------------------
          RMS of difference density     =  1.968D-08
          SCF energy change             = -2.489D-05
          Free energy change            = -2.489D-05
          new damping factor            =      0.100

              +--------------------------------------------------+
              | KINETIC ENERGY       =       62244.7809573500    |
              | COULOMB ENERGY       =     -120243.5118774697    |
              | EXCH. & CORR. ENERGY =       -4489.3506112972    |
              |==================================================|
              | TOTAL ENERGY         =      -62488.0815314170    |
              | T*S                  =          -0.0000000000    |
              | FREE  ENERGY         =      -62488.0815314170    |
              | ENERGY (sigma->0)    =      -62488.0815314170    |
              +--------------------------------------------------+


              +--------------------------------------------------+
              |                SCF iteration   21                |
              +--------------------------------------------------+

          Number of electrons from P*S  =  3024.00000000000091

          Numerical integration of the XC term:
          Number of electrons           =  3024.19231823980999

          Norm of current diis error    =  6.224D-03
         ------------------ Fractional Occupations ----------------
           Fermi level           =             -0.1851024393
           Electrons(/UC)        =           3024.0000000000
           Current HOMO-LUMO gap =     0.32669E-01
         ----------------------------------------------------------
          RMS of difference density     =  1.399D-08
          SCF energy change             = -2.523D-05
          Free energy change            = -2.523D-05
          new damping factor            =      0.100

              +--------------------------------------------------+
              | KINETIC ENERGY       =       62244.7806179197    |
              | COULOMB ENERGY       =     -120243.5115706213    |
              | EXCH. & CORR. ENERGY =       -4489.3506039493    |
              |==================================================|
              | TOTAL ENERGY         =      -62488.0815566509    |
              | T*S                  =          -0.0000000000    |
              | FREE  ENERGY         =      -62488.0815566509    |
              | ENERGY (sigma->0)    =      -62488.0815566509    |
              +--------------------------------------------------+


              +--------------------------------------------------+
              |                SCF iteration   22                |
              +--------------------------------------------------+

          Number of electrons from P*S  =  3023.99999999999682

          Numerical integration of the XC term:
          Number of electrons           =  3024.19231813928127

          Norm of current diis error    =  4.862D-03
         ------------------ Fractional Occupations ----------------
           Fermi level           =             -0.1849756317
           Electrons(/UC)        =           3024.0000000000
           Current HOMO-LUMO gap =     0.32671E-01
         ----------------------------------------------------------
          RMS of difference density     =  9.383D-09
          SCF energy change             = -9.171D-06
          Free energy change            = -9.171D-06
          new damping factor            =      0.100

              +--------------------------------------------------+
              | KINETIC ENERGY       =       62244.7804839783    |
              | COULOMB ENERGY       =     -120243.5114469565    |
              | EXCH. & CORR. ENERGY =       -4489.3506028435    |
              |==================================================|
              | TOTAL ENERGY         =      -62488.0815658217    |
              | T*S                  =          -0.0000000000    |
              | FREE  ENERGY         =      -62488.0815658217    |
              | ENERGY (sigma->0)    =      -62488.0815658217    |
              +--------------------------------------------------+


              +--------------------------------------------------+
              |                SCF iteration   23                |
              +--------------------------------------------------+

          Number of electrons from P*S  =  3023.99999999999682

          Numerical integration of the XC term:
          Number of electrons           =  3024.19231805730033

          Norm of current diis error    =  5.679D-03
         ------------------ Fractional Occupations ----------------
           Fermi level           =             -0.1850078324
           Electrons(/UC)        =           3024.0000000000
           Current HOMO-LUMO gap =     0.32673E-01
         ----------------------------------------------------------
          RMS of difference density     =  7.995D-09
          SCF energy change             = -3.011D-06
          Free energy change            = -3.011D-06
          new damping factor            =      0.100

              +--------------------------------------------------+
              | KINETIC ENERGY       =       62244.7805324039    |
              | COULOMB ENERGY       =     -120243.5114882477    |
              | EXCH. & CORR. ENERGY =       -4489.3506129888    |
              |==================================================|
              | TOTAL ENERGY         =      -62488.0815688325    |
              | T*S                  =          -0.0000000000    |
              | FREE  ENERGY         =      -62488.0815688325    |
              | ENERGY (sigma->0)    =      -62488.0815688325    |
              +--------------------------------------------------+


              +--------------------------------------------------+
              |                SCF iteration   24                |
              +--------------------------------------------------+

          Number of electrons from P*S  =  3024.00000000000045

          Numerical integration of the XC term:
          Number of electrons           =  3024.19231799606268

          Norm of current diis error    =  2.639D-03
         ------------------ Fractional Occupations ----------------
           Fermi level           =             -0.1850610222
           Electrons(/UC)        =           3024.0000000000
           Current HOMO-LUMO gap =     0.32674E-01
         ----------------------------------------------------------
          RMS of difference density     =  5.708D-09
          SCF energy change             = -5.297D-06
          Free energy change            = -5.297D-06
[...]
              +--------------------------------------------------+

          Number of electrons from P*S  =  3024.00000000000227

          Numerical integration of the XC term:
          Number of electrons           =  3024.19231792439996

          Norm of current diis error    =  1.352D-03
         ------------------ Fractional Occupations ----------------
           Fermi level           =             -0.1850085790
           Electrons(/UC)        =           3024.0000000000
           Current HOMO-LUMO gap =     0.32676E-01
         ----------------------------------------------------------
          RMS of difference density     =  1.435D-09
          SCF energy change             = -5.977D-07
          Free energy change            = -5.977D-07
          new damping factor            =      0.100

              +--------------------------------------------------+
              | KINETIC ENERGY       =       62244.7805069501    |
              | COULOMB ENERGY       =     -120243.5114643686    |
              | EXCH. & CORR. ENERGY =       -4489.3506202707    |
              |==================================================|
              | TOTAL ENERGY         =      -62488.0815776891    |
              | T*S                  =          -0.0000000000    |
              | FREE  ENERGY         =      -62488.0815776891    |
              | ENERGY (sigma->0)    =      -62488.0815776891    |
              +--------------------------------------------------+


              +--------------------------------------------------+
              |                SCF iteration   30                |
              +--------------------------------------------------+

          Number of electrons from P*S  =  3024.00000000000136

          Numerical integration of the XC term:
          Number of electrons           =  3024.19231792170831

          Norm of current diis error    =  7.316D-04
         ------------------ Fractional Occupations ----------------
           Fermi level           =             -0.1849771205
           Electrons(/UC)        =           3024.0000000000
           Current HOMO-LUMO gap =     0.32676E-01
         ----------------------------------------------------------
          RMS of difference density     =  1.318D-09
          SCF energy change             = -2.345D-07
          Free energy change            = -2.345D-07
          new damping factor            =      0.100

              +--------------------------------------------------+
              | KINETIC ENERGY       =       62244.7805063186    |
              | COULOMB ENERGY       =     -120243.5114638731    |
              | EXCH. & CORR. ENERGY =       -4489.3506203692    |
              |==================================================|
              | TOTAL ENERGY         =      -62488.0815779236    |
              | T*S                  =          -0.0000000000    |
              | FREE  ENERGY         =      -62488.0815779236    |
              | ENERGY (sigma->0)    =      -62488.0815779236    |
              +--------------------------------------------------+


              +--------------------------------------------------+
              |                SCF iteration   31                |
              +--------------------------------------------------+

          Number of electrons from P*S  =  3023.99999999999682

          Numerical integration of the XC term:
          Number of electrons           =  3024.19231791995571

          Norm of current diis error    =  1.027D-03
         ------------------ Fractional Occupations ----------------
           Fermi level           =             -0.1849923188
           Electrons(/UC)        =           3024.0000000000
           Current HOMO-LUMO gap =     0.32676E-01
         ----------------------------------------------------------
          RMS of difference density     =  1.153D-09
          SCF energy change             =  1.029D-08
          Free energy change            =  1.029D-08
          new damping factor            =      0.200

              +--------------------------------------------------+
              | KINETIC ENERGY       =       62244.7805069476    |
              | COULOMB ENERGY       =     -120243.5114643201    |
              | EXCH. & CORR. ENERGY =       -4489.3506205408    |
              |==================================================|
              | TOTAL ENERGY         =      -62488.0815779133    |
              | T*S                  =          -0.0000000000    |
              | FREE  ENERGY         =      -62488.0815779133    |
              | ENERGY (sigma->0)    =      -62488.0815779133    |
              +--------------------------------------------------+


              +--------------------------------------------------+
              |                SCF iteration   32                |
              +--------------------------------------------------+

          Number of electrons from P*S  =  3024.00000000000227

          Numerical integration of the XC term:
          Number of electrons           =  3024.19231791847733

          Norm of current diis error    =  5.720D-04
         ------------------ Fractional Occupations ----------------
           Fermi level           =             -0.1849959206
           Electrons(/UC)        =           3024.0000000000
           Current HOMO-LUMO gap =     0.32677E-01
         ----------------------------------------------------------
          RMS of difference density     =  7.473D-10
          SCF energy change             = -1.247D-07
          Free energy change            = -1.247D-07
          new damping factor            =      0.100

              +--------------------------------------------------+
              | KINETIC ENERGY       =       62244.7805075223    |
              | COULOMB ENERGY       =     -120243.5114648975    |
              | EXCH. & CORR. ENERGY =       -4489.3506206628    |
              |==================================================|
              | TOTAL ENERGY         =      -62488.0815780380    |
              | T*S                  =          -0.0000000000    |
              | FREE  ENERGY         =      -62488.0815780380    |
              | ENERGY (sigma->0)    =      -62488.0815780380    |
              +--------------------------------------------------+


              +--------------------------------------------------+
              |                SCF iteration   33                |
              +--------------------------------------------------+

          Number of electrons from P*S  =  3023.99999999999727

          Numerical integration of the XC term:
          Number of electrons           =  3024.19231791805896

          Norm of current diis error    =  6.050D-04
         ------------------ Fractional Occupations ----------------
           Fermi level           =             -0.1849849450
           Electrons(/UC)        =           3024.0000000000
           Current HOMO-LUMO gap =     0.32677E-01
         ----------------------------------------------------------
          RMS of difference density     =  6.961D-10
          SCF energy change             = -7.713D-09
          Free energy change            = -7.713D-09
          new damping factor            =      0.100

              +--------------------------------------------------+
              | KINETIC ENERGY       =       62244.7805065670    |
              | COULOMB ENERGY       =     -120243.5114640072    |
              | EXCH. & CORR. ENERGY =       -4489.3506206055    |
              |==================================================|
              | TOTAL ENERGY         =      -62488.0815780457    |
              | T*S                  =          -0.0000000000    |
              | FREE  ENERGY         =      -62488.0815780457    |
              | ENERGY (sigma->0)    =      -62488.0815780457    |
              +--------------------------------------------------+


              +--------------------------------------------------+
              |                SCF iteration   34                |
              +--------------------------------------------------+

          Number of electrons from P*S  =  3023.99999999999864

          Numerical integration of the XC term:
          Number of electrons           =  3024.19231791751508

          Norm of current diis error    =  7.083D-04
         ------------------ Fractional Occupations ----------------
           Fermi level           =             -0.1849891763
           Electrons(/UC)        =           3024.0000000000
           Current HOMO-LUMO gap =     0.32677E-01
         ----------------------------------------------------------
          RMS of difference density     =  8.319D-10
          SCF energy change             =  2.095D-09
          Free energy change            =  2.095D-09
          new damping factor            =      0.200

              +--------------------------------------------------+
              | KINETIC ENERGY       =       62244.7805068594    |
              | COULOMB ENERGY       =     -120243.5114642531    |
              | EXCH. & CORR. ENERGY =       -4489.3506206499    |
              |==================================================|
              | TOTAL ENERGY         =      -62488.0815780436    |
              | T*S                  =          -0.0000000000    |
              | FREE  ENERGY         =      -62488.0815780436    |
              | ENERGY (sigma->0)    =      -62488.0815780436    |
              +--------------------------------------------------+


              +--------------------------------------------------+
              |                SCF iteration   35                |
              +--------------------------------------------------+

          Number of electrons from P*S  =  3023.99999999999955

          Numerical integration of the XC term:
          Number of electrons           =  3024.19231791718721

          Norm of current diis error    =  4.280D-04
         ------------------ Fractional Occupations ----------------
           Fermi level           =             -0.1849913809
           Electrons(/UC)        =           3024.0000000000
           Current HOMO-LUMO gap =     0.32677E-01
         ----------------------------------------------------------
          RMS of difference density     =  4.387D-10
          SCF energy change             = -3.682D-08
          Free energy change            = -3.682D-08
          new damping factor            =      0.100

              +--------------------------------------------------+
              | KINETIC ENERGY       =       62244.7805070445    |
              | COULOMB ENERGY       =     -120243.5114644356    |
              | EXCH. & CORR. ENERGY =       -4489.3506206894    |
              |==================================================|
              | TOTAL ENERGY         =      -62488.0815780804    |
              | T*S                  =          -0.0000000000    |
              | FREE  ENERGY         =      -62488.0815780804    |
              | ENERGY (sigma->0)    =      -62488.0815780804    |
              +--------------------------------------------------+


              +--------------------------------------------------+
              |                SCF iteration   36                |
              +--------------------------------------------------+

          Number of electrons from P*S  =  3023.99999999999909

          Numerical integration of the XC term:
          Number of electrons           =  3024.19231791702032

          Norm of current diis error    =  2.574D-04
         ------------------ Fractional Occupations ----------------
           Fermi level           =             -0.1849986629
           Electrons(/UC)        =           3024.0000000000
           Current HOMO-LUMO gap =     0.32677E-01
         ----------------------------------------------------------
          RMS of difference density     =  3.893D-10
          SCF energy change             = -1.578D-08
          Free energy change            = -1.578D-08
          new damping factor            =      0.100

              +--------------------------------------------------+
              | KINETIC ENERGY       =       62244.7805069872    |
              | COULOMB ENERGY       =     -120243.5114643909    |
              | EXCH. & CORR. ENERGY =       -4489.3506206925    |
              |==================================================|
              | TOTAL ENERGY         =      -62488.0815780962    |
              | T*S                  =          -0.0000000000    |
              | FREE  ENERGY         =      -62488.0815780962    |
              | ENERGY (sigma->0)    =      -62488.0815780962    |
              +--------------------------------------------------+


              +--------------------------------------------------+
              |                SCF iteration   37                |
              +--------------------------------------------------+

          Number of electrons from P*S  =  3024.00000000000091

          Numerical integration of the XC term:
          Number of electrons           =  3024.19231791700849

          Norm of current diis error    =  3.326D-04
         ------------------ Fractional Occupations ----------------
           Fermi level           =             -0.1849878292
           Electrons(/UC)        =           3024.0000000000
           Current HOMO-LUMO gap =     0.32677E-01
         ----------------------------------------------------------
          RMS of difference density     =  3.744D-10
          SCF energy change             = -7.276D-12
          Free energy change            = -7.276D-12
          new damping factor            =      0.200

              +--------------------------------------------------+
              | KINETIC ENERGY       =       62244.7805069070    |
              | COULOMB ENERGY       =     -120243.5114643127    |
              | EXCH. & CORR. ENERGY =       -4489.3506206906    |
              |==================================================|
              | TOTAL ENERGY         =      -62488.0815780962    |
              | T*S                  =          -0.0000000000    |
              | FREE  ENERGY         =      -62488.0815780962    |
              | ENERGY (sigma->0)    =      -62488.0815780962    |
              +--------------------------------------------------+


              +--------------------------------------------------+
              |       SCF converged - final SCF iteration        |
              +--------------------------------------------------+

          Number of electrons from P*S  =  3023.99999999999727

          Numerical integration of the XC term:
          Number of electrons           =  3024.19231791686116


              SCF converged within     37 cycles.

              +--------------------------------------------------+
              |                FINAL ENERGIES                    |
              +--------------------------------------------------+
              | KINETIC ENERGY       =       62244.7805069386    |
              | COULOMB ENERGY       =     -120243.5114643499    |
              | EXCH. & CORR. ENERGY =       -4489.3506206965    |
              |==================================================|
              | TOTAL ENERGY         =      -62488.0815781078    |
              | T*S                  =          -0.0000000000    |
              | FREE  ENERGY         =      -62488.0815781078    |
              | ENERGY (sigma->0)    =      -62488.0815781078    |
              +--------------------------------------------------+


         ------------------ Fermi Level Statistics ----------------
             Lowest unoccupied band =       -0.157293
             Highest occupied band  =       -0.189970
             Band gap               =        0.032677
             Band gap middle        =       -0.173631
             Fermi level            =       -0.184988
         ----------------------------------------------------------

 <geterg> : there is no data group $energy


 <skperg> : $end is missing


 orbitals $scfmo  will be written to file mos

     Translation projected out of the gradient vector

   ***  cartesian gradients written onto <gradient>  ***

    ------------------------------------------------------------------------
    RIPER profiling                cpu                    wall         ratio
    ------------------------------------------------------------------------
    module                         sec     %               sec     %
    ------------------------------------------------------------------------
    RIPER                    442128.9  100.00        42424.6  100.00  10.4
    BANDS init                  755.4    0.17          158.5    0.37   4.8
    DFT grid setup              939.4    0.21           90.2    0.21  10.4
    DFT system grid             930.2    0.21           81.4    0.19  11.4
    PQ matrix                   938.5    0.21           85.4    0.20  11.0
    PQ Cholesky                 797.7    0.18           71.9    0.17  11.1
    SCF                      429799.7   97.21        41257.0   97.25  10.4
    SCF looop                429243.1   97.09        41184.3   97.08  10.4
    XC matrix                 31821.4    7.20         2671.5    6.30  11.9
    Coulomb total            349660.7   79.09        29322.3   69.12  11.9
    gamma vector             170165.5   38.49        14272.1   33.64  11.9
    gamma CFF                   530.6    0.12           44.5    0.10  11.9
    gamma CNF FF               6582.3    1.49          552.3    1.30  11.9
    gamma CNF FF mom            711.2    0.16           59.6    0.14  11.9
    gamma CNF FF p. 2          5763.6    1.30          483.6    1.14  11.9
    gamma CNF NF             162980.7   36.86        13669.4   32.22  11.9
    gamma CNF NF p. 1        159704.6   36.12        13394.8   31.57  11.9
    gamma CNF NF p. 2          3276.1    0.74          274.6    0.65  11.9
    Coulomb matrix           179470.3   40.59        15048.0   35.47  11.9
    jmat CFF                    535.8    0.12           44.9    0.11  11.9
    jmat CNF FF                6336.4    1.43          530.9    1.25  11.9
    jmat CNF FF p. 2           5760.0    1.30          482.6    1.14  11.9
    jmat CNF NF              168883.1   38.20        14160.9   33.38  11.9
    elec. en. aux              3672.4    0.83          307.8    0.73  11.9
    DIIS                        791.3    0.18           75.3    0.18  10.5
    SCF solve                 32654.8    7.39         6697.8   15.79   4.9
    D build                    9683.3    2.19         1944.2    4.58   5.0
    MO dump                    4743.5    1.07          482.8    1.14   9.8
    Gradient                   9670.8    2.19          813.5    1.92  11.9
    grad XC                    1116.4    0.25           93.2    0.22  12.0
    grad Coulomb               8506.2    1.92          711.1    1.68  12.0
    grad FF CNF                 557.9    0.13           48.1    0.11  11.6
    grad NF CNF                7873.9    1.78          656.6    1.55  12.0
    CNF NF drhoaux             6942.9    1.57          579.0    1.36  12.0
    CNF NF drhonuc              827.1    0.19           69.0    0.16  12.0
    ------------------------------------------------------------------------
    sum                     2646145.8  598.50       243013.8  572.81  10.9
    ------------------------------------------------------------------------


    ------------------------------------------------------------------------
         total  cpu-time :   5 days  2 hours 48 minutes and 49 seconds
         total wall-time : 11 hours 47 minutes and  5 seconds
    ------------------------------------------------------------------------

   ****  riper : all done  ****


    2019-03-24 12:48:27.712
