# epsilon and Z* of atoms 1 13
   3.27649624   -0.00000000    0.00000000   -0.00000000    3.27649624    0.00000000    0.00000000    0.00000000    3.21878866
   2.96008813   -0.02948662   -0.00000000    0.02948662    2.96008813   -0.00000000   -0.00000000    0.00000000    2.92614183
  -2.07328119    0.00000000    0.00000000   -0.00000000   -1.87350298    0.25811770   -0.00000000    0.35087130   -1.95076122
