14.400
3.27721185 0 0 0 3.27721185 0 0 0 3.23766951
3.01017 0 0 0 3.01017 0 0 0 3.01017
-1.93530 0 -0.26052 0 -2.03630 0 -0.26052 0 -1.96845 
