120  
7    

1    
  0.0100000000000000   0.0000000000000000   0.0000000000000000
  -0.1997697000    0.0006270300   -0.0007842200
   0.0137060100   -0.0002243300   -0.0008094900
   0.0024704300   -0.0062486200   -0.0001603700
   0.0028594700    0.0064700500    0.0009391200
   0.0010678600    0.0011813600    0.0024198000
  -0.0002063400   -0.0018283300   -0.0025838200
   0.0011714700    0.0000547500    0.0000014000
  -0.0021685600    0.0007825800    0.0001563000
  -0.0021757200    0.0006923900    0.0005001800
   0.0011716400   -0.0000590300   -0.0000043500
  -0.0002077000   -0.0019188000   -0.0024795300
   0.0010780900    0.0010882200    0.0019763100
  -0.0058763100    0.0000017800   -0.0000059300
   0.0043889000    0.0002159400   -0.0005282200
   0.0006377500   -0.0023724500    0.0004071900
   0.0002677000    0.0021604500    0.0001397100
   0.0002155500    0.0010647300   -0.0018864700
   0.0005493400   -0.0008723000    0.0016712200
   0.0007652900   -0.0000002700    0.0000028900
  -0.0013051200   -0.0001916200    0.0002265300
  -0.0160479600   -0.0006528800   -0.0078338600
   0.0025164100    0.0000138300    0.0000000700
   0.0320534800   -0.0272970000   -0.0054555900
   0.0307621500    0.0275047600    0.0131696100
  -0.0271092600   -0.0008686700    0.0001089200
   0.0069254700    0.0001009300    0.0010633800
   0.0011027900   -0.0032718000   -0.0007338200
   0.0011010800    0.0034726300   -0.0003393500
   0.0118818500    0.0100679100    0.0113947200
   0.0118512800   -0.0194709700   -0.0145371800
   0.0037102000    0.0019962000    0.0000050800
  -0.0136460400   -0.0047188200    0.0032421700
  -0.0006890500    0.0000793500   -0.0000146900
   0.0006119000   -0.0002695900    0.0000052500
  -0.0000055200   -0.0003176300    0.0002964900
  -0.0000063800    0.0004742600   -0.0002690600
  -0.0012772000   -0.0001280000   -0.0000026000
   0.0012721000    0.0000481400   -0.0002789300
   0.0000730500   -0.0006449900    0.0001683100
   0.0000764800    0.0007401200    0.0001024800
   0.0093031500    0.0135355500   -0.0109655400
   0.0080621400   -0.0058708100    0.0087599900
   0.0021033700   -0.0012147400   -0.0000060600
  -0.0081735500    0.0049169900    0.0021495300
  -0.0081370500    0.0034377600    0.0046364500
   0.0021044500   -0.0011963100    0.0000019800
   0.0092690400   -0.0052080200    0.0100489100
   0.0080108300    0.0142432300   -0.0146527000
   0.0177506300   -0.0026741100    0.0075560700
  -0.0089605700    0.0007628300   -0.0049985900
  -0.0002819900    0.0030851700   -0.0001389900
  -0.0000848100   -0.0032453100    0.0001298400
  -0.0026141600   -0.0006351100   -0.0008756700
   0.0049088200    0.0030086400    0.0027867600
  -0.0011341800   -0.0016975100    0.0012442800
  -0.0000880000    0.0033437900   -0.0046575100
   0.0000506000   -0.0005153700    0.0005086200
  -0.0003194800    0.0003074600   -0.0003345300
  -0.0005780600    0.0003148500    0.0003095200
   0.0006889000   -0.0002054200   -0.0003108300
  -0.0009120900    0.0001183000   -0.0006882000
   0.0006869900   -0.0001947100    0.0008829200
   0.0000390900   -0.0005406600   -0.0000202400
   0.0001112500    0.0007027800   -0.0004880800
   0.0044831400   -0.0037178800    0.0036083800
  -0.0018827500    0.0008229200   -0.0009448700
  -0.0006099200    0.0008365400    0.0004528000
  -0.0002334300   -0.0014994300   -0.0022631800
   0.0040949400    0.0058516800    0.0014336200
  -0.0025570000   -0.0025591300   -0.0000414700
   0.0307971900   -0.0123767800    0.0079344800
  -0.0099845600   -0.0041790400    0.0006373400
   0.0202569600    0.0020309600   -0.0015315100
  -0.0062192800   -0.0015036800   -0.0000541800
   0.0010204200    0.0057748600    0.0030776200
  -0.0021287700   -0.0030975500   -0.0012212300
  -0.0011170300   -0.0024178300   -0.0029216900
  -0.0006995600    0.0019281000    0.0007326500
  -0.0027844800    0.0006136800   -0.0011538400
   0.0064092500   -0.0034099200    0.0030212800
   0.0001279100    0.0003020800   -0.0000973700
   0.0000299000   -0.0004557500   -0.0001710300
   0.0004473800    0.0002713000    0.0005933500
  -0.0005677100   -0.0001519800   -0.0005649200
   0.0000855700    0.0005909200    0.0004568500
  -0.0004066500   -0.0003710400   -0.0005369200
   0.0011316400    0.0001971400   -0.0001910200
  -0.0008039900   -0.0004652400    0.0004106000
  -0.0029138400    0.0000114500    0.0041918800
  -0.0011186500    0.0000406900   -0.0042823600
   0.0000723800   -0.0008108600   -0.0000756200
   0.0003572200    0.0007397100    0.0002544900
   0.0290661700    0.0096914000    0.0087260100
  -0.0068554200    0.0035589400   -0.0002337400
  -0.0040443000    0.0038374200   -0.0005185000
   0.0020964700   -0.0092939300    0.0013454200
   0.0003386600   -0.0054315400    0.0019353900
  -0.0016781200    0.0029016300   -0.0000571600
  -0.0065779600    0.0015504100    0.0013748600
   0.0226320700   -0.0032905100   -0.0066986400
   0.0001537900   -0.0014545300   -0.0058277500
  -0.0055728800    0.0014055600    0.0076107000
   0.0000787500    0.0009270300   -0.0001023400
   0.0006016000   -0.0009680500    0.0001269200
   0.0010002200    0.0002969800   -0.0002833200
  -0.0007861000   -0.0003178200    0.0005061300
   0.0000746700    0.0002567300    0.0000574500
  -0.0002191900   -0.0002471700   -0.0002128800
   0.0012746600   -0.0003384600   -0.0006941000
  -0.0010519300    0.0006619500    0.0010250400
  -0.0002870800    0.0002730000   -0.0003932400
   0.0000219700   -0.0004645800    0.0002286000
  -0.0008536000   -0.0012113100    0.0006944700
  -0.0002958100    0.0015398900   -0.0019567500
  -0.0017149500   -0.0006327700   -0.0003714700
   0.0049224400    0.0029516300    0.0006715700
  -0.0001146100   -0.0053288200   -0.0001261400
   0.0005513500    0.0041691900    0.0002717700
  -0.0101178600   -0.0000222500   -0.0027870600
   0.0464685600   -0.0000765800   -0.0152329100

1    
 -0.0100000000000000   0.0000000000000000   0.0000000000000000
   0.2022766000    0.0006265200   -0.0008416900
  -0.0136772900    0.0002244100    0.0007813100
  -0.0024791800    0.0062542700    0.0001440400
  -0.0028684800   -0.0064819500   -0.0009559200
  -0.0010783500   -0.0011772300   -0.0024252500
   0.0002053000    0.0018262500    0.0025815500
  -0.0011721400   -0.0000614100    0.0000009600
   0.0021718100   -0.0007848500   -0.0001641600
   0.0021655100   -0.0006946600   -0.0004998300
  -0.0011722500    0.0000574800   -0.0000043800
   0.0002044800    0.0019168700    0.0024733200
  -0.0010687100   -0.0010904000   -0.0019769200
   0.0058790800    0.0000017100   -0.0000057400
  -0.0043814400   -0.0002112100    0.0005512600
  -0.0006401400    0.0023799200   -0.0003986700
  -0.0002708400   -0.0021652600   -0.0001332100
  -0.0002106300   -0.0010673400    0.0018926500
  -0.0005392600    0.0008779100   -0.0016600900
  -0.0007652100    0.0000001200    0.0000029200
   0.0012996000    0.0001913800   -0.0002202400
   0.0160494600    0.0004845200    0.0078578800
  -0.0025148200    0.0000131500    0.0000002800
  -0.0317516200    0.0269336200    0.0053347400
  -0.0310706100   -0.0278684800   -0.0133106800
   0.0270468000    0.0008742300    0.0001089300
  -0.0069405900   -0.0001015000   -0.0010890600
  -0.0010954600    0.0032625500    0.0007370100
  -0.0010968800   -0.0034658200    0.0003423200
  -0.0118932300   -0.0099451000   -0.0112827200
  -0.0119232000    0.0195271400    0.0146531000
  -0.0037099000   -0.0020165000    0.0000048300
   0.0136837300    0.0047740900   -0.0032702100
   0.0006906100   -0.0000802200    0.0000227800
  -0.0006121000    0.0002681800    0.0000049800
   0.0000048500    0.0003134700   -0.0002882300
   0.0000045300   -0.0004758300    0.0002786200
   0.0012773000    0.0001295200   -0.0000028700
  -0.0012728900   -0.0000454100    0.0002734900
  -0.0000731500    0.0006461800   -0.0001737300
  -0.0000701000   -0.0007381100   -0.0001087700
  -0.0092744000   -0.0135210800    0.0108919600
  -0.0080107300    0.0059224000   -0.0088191900
  -0.0021022600    0.0011979100   -0.0000061300
   0.0081457300   -0.0048846800   -0.0021296200
   0.0081828800   -0.0034724900   -0.0046683600
  -0.0021010700    0.0012146600    0.0000014900
  -0.0093106900    0.0051380800   -0.0100061300
  -0.0080633700   -0.0142633500    0.0147060300
  -0.0164601900    0.0026844900   -0.0085334300
   0.0090192000   -0.0007673300    0.0050373000
   0.0003106000   -0.0030724400    0.0001426800
   0.0001140400    0.0032291700   -0.0001218500
   0.0025760800    0.0006354500    0.0008593300
  -0.0049740500   -0.0030105400   -0.0027984600
   0.0010933100    0.0017103500   -0.0012490200
   0.0000518500   -0.0033517300    0.0046809400
  -0.0000881900    0.0005050900   -0.0005063400
   0.0002769900   -0.0003175300    0.0003360500
   0.0005382800   -0.0003246000   -0.0003096000
  -0.0007270500    0.0001962700    0.0003106700
   0.0008800900   -0.0001169100    0.0006850600
  -0.0007216900    0.0001967000   -0.0008849200
  -0.0000744800    0.0005451800    0.0000176700
  -0.0001455700   -0.0007029700    0.0004887700
  -0.0044339500    0.0037173300   -0.0035994900
   0.0019179800   -0.0008196200    0.0009537600
   0.0006507600   -0.0008242300   -0.0004520500
   0.0002670700    0.0014978500    0.0022439300
  -0.0040775600   -0.0058900600   -0.0014263300
   0.0026115600    0.0025414700    0.0000400900
  -0.0303420600    0.0115275300   -0.0074310900
   0.0100101400    0.0041786800   -0.0006520700
  -0.0204702400   -0.0018241300    0.0013110500
   0.0062060300    0.0015201600    0.0000737500
  -0.0010278500   -0.0057404800   -0.0030797400
   0.0021028600    0.0031297600    0.0012261100
   0.0011446400    0.0023902700    0.0029492800
   0.0007083000   -0.0019725300   -0.0007419500
   0.0027945500   -0.0006417700    0.0011376100
  -0.0064147100    0.0033791200   -0.0030396700
  -0.0001022900   -0.0003327000    0.0000956200
  -0.0000029700    0.0004224000    0.0001705200
  -0.0004217000   -0.0003036400   -0.0005935800
   0.0005912700    0.0001199100    0.0005640600
  -0.0000685700   -0.0006189200   -0.0004583000
   0.0004267100    0.0003414200    0.0005386800
  -0.0011128200   -0.0002246100    0.0001909500
   0.0008203600    0.0004362200   -0.0004138700
   0.0029044100    0.0000212700   -0.0042070600
   0.0010759500   -0.0000125400    0.0042655100
  -0.0000977600    0.0008452700    0.0000772700
  -0.0003829800   -0.0007088500   -0.0002558500
  -0.0289949700   -0.0091807500   -0.0084431500
   0.0068425100   -0.0035364100    0.0002265400
   0.0040539200   -0.0037878800    0.0005162500
  -0.0021215600    0.0093750000   -0.0013392400
  -0.0003408100    0.0053939600   -0.0019428600
   0.0016478400   -0.0029335800    0.0000668200
   0.0065622300   -0.0015620000   -0.0013545600
  -0.0228078200    0.0031196800    0.0065655000
  -0.0001050300    0.0014813800    0.0058181400
   0.0055921600   -0.0013715800   -0.0075985400
  -0.0000541700   -0.0008950900    0.0001002400
  -0.0005753900    0.0009965500   -0.0001336100
  -0.0009859200   -0.0002592400    0.0002824500
   0.0007999800    0.0003582500   -0.0005058800
  -0.0000614300   -0.0002172600   -0.0000567200
   0.0002303800    0.0002858600    0.0002132200
  -0.0012583800    0.0003664500    0.0006918600
   0.0010680800   -0.0006330200   -0.0010273400
   0.0003066400   -0.0002426900    0.0003929000
  -0.0000057100    0.0004941400   -0.0002295600
   0.0008425400    0.0011715200   -0.0006940400
   0.0002740000   -0.0015664200    0.0019351000
   0.0017002800    0.0005996100    0.0003805300
  -0.0049264300   -0.0029840400   -0.0006682300
   0.0000882000    0.0053353000    0.0001284500
  -0.0005799100   -0.0042190300   -0.0002699700
   0.0100218900    0.0000128200    0.0027576800
  -0.0502367600   -0.0002383800    0.0173414000

1    
  0.0000000000000000   0.0000000000000000   0.0100000000000000
   0.0000000000    0.0000000000   -0.1769706300
  -0.0007925700    0.0006339300   -0.0096349200
  -0.0001527200   -0.0010033500   -0.0096349200
   0.0009452800    0.0003694200   -0.0096349200
   0.0019840400    0.0017331400    0.0052494500
  -0.0024929600    0.0008516600    0.0052494500
   0.0000000000    0.0000000000    0.0030056800
   0.0005089200   -0.0025847900    0.0052494500
   0.0001574400   -0.0028855700    0.0052471000
   0.0000000000    0.0000000000    0.0030107800
  -0.0025776900    0.0013064400    0.0052471000
   0.0024202500    0.0015791300    0.0052471000
   0.0000000000    0.0000000000    0.0127655300
  -0.0005366400   -0.0001546200    0.0031627900
   0.0004022300   -0.0003874300    0.0031627900
   0.0001344100    0.0005420500    0.0031627900
  -0.0018831000   -0.0008341600    0.0052174400
   0.0016639500   -0.0012137300    0.0052174400
   0.0000000000    0.0000000000    0.0029476900
   0.0002191400    0.0020478900    0.0052174400
  -0.0078401000   -0.0108129700   -0.0257505500
   0.0000000000    0.0000000000   -0.0084793700
  -0.0054442600    0.0121962100   -0.0257505500
   0.0132843600   -0.0013832400   -0.0257505500
   0.0000000000    0.0000000000    0.0562314000
  -0.0010784700    0.0002271300   -0.0002635400
   0.0003425300   -0.0010475500   -0.0002635400
   0.0007359300    0.0008204200   -0.0002635400
   0.0146040100    0.0046965400    0.0031731100
  -0.0113693200    0.0102991700    0.0031731100
   0.0000000000    0.0000000000   -0.0003922100
  -0.0032346800   -0.0149957100    0.0031731100
   0.0000192700    0.0003321900    0.0048739100
   0.0000000000    0.0000000000    0.0039705900
   0.0002780500   -0.0001827800    0.0048739100
  -0.0002973200   -0.0001494100    0.0048739100
   0.0000000000    0.0000000000    0.0059391300
   0.0002763700   -0.0000372400    0.0042053800
  -0.0001059300    0.0002579600    0.0042053800
  -0.0001704300   -0.0002207200    0.0042053800
  -0.0100077900   -0.0111608900    0.0052370400
   0.0146695100   -0.0030865600    0.0052370400
   0.0000000000    0.0000000000   -0.0007956100
  -0.0046617100    0.0142474500    0.0052370400
  -0.0021188700    0.0114123800    0.0052150600
   0.0000000000    0.0000000000   -0.0008114500
   0.0109428400   -0.0038712000    0.0052150600
  -0.0088239800   -0.0075411800    0.0052150600
   0.0048429700   -0.0011048700    0.0176132200
  -0.0035781200   -0.0010536800    0.0057405100
   0.0000089700    0.0026974500    0.0032666200
  -0.0001888100   -0.0037840700    0.0034981800
  -0.0012986000   -0.0004291900   -0.0005422800
   0.0028893900   -0.0025950500   -0.0055504000
   0.0005470700    0.0004980400   -0.0008838500
  -0.0013674200    0.0027662500   -0.0029638400
   0.0002436100    0.0011293800   -0.0033040400
  -0.0002654200    0.0004907800   -0.0026460900
   0.0001912800    0.0002341800   -0.0025384300
  -0.0002744400    0.0004005000   -0.0038602700
  -0.0007853500    0.0005332800   -0.0030715000
   0.0004692800    0.0007841900   -0.0040732700
   0.0000943900    0.0002291700   -0.0025198400
   0.0000708800    0.0007038400   -0.0026611300
   0.0021404500    0.0039152400   -0.0070867900
  -0.0010556900    0.0004666700   -0.0008892100
   0.0006074800   -0.0001739200   -0.0007845500
  -0.0016081700   -0.0023068800   -0.0035029700
   0.0028657400   -0.0039941100    0.0068399600
  -0.0022774500   -0.0017225200    0.0034129400
   0.0064561100   -0.0144643200    0.0308002900
   0.0042092200    0.0016901000    0.0029673200
  -0.0014646400    0.0047465700    0.0176132200
   0.0033715100    0.0017285200    0.0034981800
   0.0027015800   -0.0025719000    0.0057405100
  -0.0023405500   -0.0013409500    0.0032666200
  -0.0017119300   -0.0025673500   -0.0029638400
   0.0010209900   -0.0009100300   -0.0005422800
  -0.0007048500    0.0002247500   -0.0008838500
   0.0008026900    0.0037998100   -0.0055504000
  -0.0002984400    0.0000485600   -0.0025384300
  -0.0002923200   -0.0004752500   -0.0026460900
  -0.0002096200   -0.0004379200   -0.0038602700
  -0.0010998700   -0.0003537200   -0.0033040400
  -0.0000691600   -0.0009467700   -0.0030715000
  -0.0006449800   -0.0002905300   -0.0026611300
  -0.0009137700    0.0000143200   -0.0040732700
  -0.0002456600   -0.0000328400   -0.0025198400
   0.0028019000   -0.0002392800   -0.0035029700
  -0.0044609200   -0.0001039400   -0.0070867900
  -0.0001531200    0.0006130600   -0.0007845500
   0.0001237000   -0.0011475900   -0.0008892100
   0.0092984100    0.0128233200    0.0308002900
   0.0026304800   -0.0011110700    0.0034129400
  -0.0035682800    0.0028002400    0.0029673200
   0.0020261300    0.0044788600    0.0068399600
   0.0008765500    0.0036255900    0.0057405100
  -0.0031826900    0.0020555500    0.0034981800
   0.0023315700   -0.0013565000    0.0032666200
  -0.0033783300   -0.0036417000    0.0176132200
  -0.0036920700   -0.0012047600   -0.0055504000
   0.0030793500   -0.0001989000   -0.0029638400
   0.0001577800   -0.0007227900   -0.0008838500
   0.0002776100    0.0013392200   -0.0005422800
   0.0004840600    0.0000374200   -0.0038602700
   0.0005577300   -0.0000155300   -0.0026460900
   0.0008562700   -0.0007756600   -0.0033040400
   0.0001071700   -0.0002827400   -0.0025384300
   0.0004444900   -0.0007985100   -0.0040732700
   0.0005741000   -0.0004133000   -0.0026611300
   0.0001512700   -0.0001963300   -0.0025198400
   0.0008545100    0.0004134900   -0.0030715000
   0.0009320000    0.0006809200   -0.0008892100
  -0.0011937300    0.0025461600   -0.0035029700
  -0.0004543600   -0.0004391300   -0.0007845500
   0.0023204700   -0.0038113000   -0.0070867900
  -0.0006409400   -0.0044903400    0.0029673200
  -0.0003530200    0.0028335900    0.0034129400
  -0.0048918800   -0.0004847500    0.0068399600
  -0.0157545200    0.0016410000    0.0308002900

1    
  0.0000000000000000   0.0000000000000000  -0.0100000000000000
   0.0000000000    0.0000000000    0.1796932100
   0.0007991800   -0.0006362300    0.0096413800
   0.0001514000    0.0010102200    0.0096413800
  -0.0009505800   -0.0003740000    0.0096413800
  -0.0019692400   -0.0017037700   -0.0052462400
   0.0024601300   -0.0008535300   -0.0052462400
   0.0000000000    0.0000000000   -0.0030183100
  -0.0004908900    0.0025573000   -0.0052462400
  -0.0001638900    0.0028945700   -0.0052494500
   0.0000000000    0.0000000000   -0.0030135000
   0.0025887200   -0.0013053500   -0.0052494500
  -0.0024248200   -0.0015892200   -0.0052494500
   0.0000000000    0.0000000000   -0.0126423800
   0.0005433600    0.0001529400   -0.0031606700
  -0.0004041300    0.0003940900   -0.0031606700
  -0.0001392300   -0.0005470300   -0.0031606700
   0.0018955600    0.0008312600   -0.0052065600
  -0.0016676700    0.0012259700   -0.0052065600
   0.0000000000    0.0000000000   -0.0029332300
  -0.0002278900   -0.0020572300   -0.0052065600
   0.0078507100    0.0107004300    0.0258487900
   0.0000000000    0.0000000000    0.0084991500
   0.0053414900   -0.0121491300    0.0258487900
  -0.0131922000    0.0014487000    0.0258487900
   0.0000000000    0.0000000000   -0.0572082300
   0.0010738900   -0.0002282700    0.0002770400
  -0.0003392600    0.0010441500    0.0002770400
  -0.0007346300   -0.0008158800    0.0002770400
  -0.0145849700   -0.0046359500   -0.0032349200
   0.0113073400   -0.0103129800   -0.0032349200
   0.0000000000    0.0000000000    0.0003744400
   0.0032776400    0.0149489300   -0.0032349200
  -0.0000180200   -0.0003225400   -0.0048602900
   0.0000000000    0.0000000000   -0.0039599800
  -0.0002703200    0.0001768700   -0.0048602900
   0.0002883400    0.0001456700   -0.0048602900
   0.0000000000    0.0000000000   -0.0059390100
  -0.0002760800    0.0000381800   -0.0042098500
   0.0001049700   -0.0002581800   -0.0042098500
   0.0001711100    0.0002200000   -0.0042098500
   0.0100458700    0.0111598500   -0.0052532300
  -0.0146876500    0.0031200600   -0.0052532300
   0.0000000000    0.0000000000    0.0007968400
   0.0046417800   -0.0142799000   -0.0052532300
   0.0021610300   -0.0113576200   -0.0052747500
   0.0000000000    0.0000000000    0.0007821500
  -0.0109165000    0.0038073100   -0.0052747500
   0.0087554800    0.0075503100   -0.0052747500
  -0.0039934300    0.0011603800   -0.0185101600
   0.0036122800    0.0010573000   -0.0057561400
   0.0000162300   -0.0026974700   -0.0032723700
   0.0002158100    0.0037861700   -0.0035014500
   0.0012424800    0.0004299600    0.0005506400
  -0.0029004900    0.0025672400    0.0055307400
  -0.0005861800   -0.0004897000    0.0008939000
   0.0013139100   -0.0027611500    0.0029973800
  -0.0002914700   -0.0011418000    0.0033055200
   0.0002190100   -0.0004989800    0.0026437500
  -0.0002385200   -0.0002410600    0.0025349100
   0.0002314500   -0.0004043100    0.0038584500
   0.0007484400   -0.0005322100    0.0030650200
  -0.0004900700   -0.0007820900    0.0040627900
  -0.0001210800   -0.0002301700    0.0025229500
  -0.0000984200   -0.0007041500    0.0026638000
  -0.0021072200   -0.0039177800    0.0070978800
   0.0011039500   -0.0004599800    0.0008840200
  -0.0005649100    0.0001837500    0.0007793500
   0.0016505000    0.0023086800    0.0034778100
  -0.0028284500    0.0039898500   -0.0068290300
   0.0023380000    0.0017195300   -0.0034089200
  -0.0059402200    0.0137150300   -0.0305068600
  -0.0041884200   -0.0017132000   -0.0029656000
   0.0009918000   -0.0040386000   -0.0185101600
  -0.0033868300   -0.0017061900   -0.0035014500
  -0.0027217900    0.0025996800   -0.0057561400
   0.0023279600    0.0013627900   -0.0032723700
   0.0017342700    0.0025184500    0.0029973800
  -0.0009936000    0.0008610400    0.0005506400
   0.0007171800   -0.0002627900    0.0008939000
  -0.0007730500   -0.0037955200    0.0055307400
   0.0003280300   -0.0000860300    0.0025349100
   0.0003226300    0.0004391600    0.0026437500
   0.0002344200    0.0004026000    0.0038584500
   0.0011345600    0.0003184800    0.0033055200
   0.0000866900    0.0009142700    0.0030650200
   0.0006590200    0.0002668400    0.0026638000
   0.0009223400   -0.0000333700    0.0040627900
   0.0002598700    0.0000102200    0.0025229500
  -0.0028246200    0.0002750400    0.0034778100
   0.0044465000    0.0001339900    0.0070978800
   0.0001233200   -0.0005811000    0.0007793500
  -0.0001536200    0.0011860400    0.0008840200
  -0.0089074500   -0.0120019000   -0.0305068600
  -0.0026581600    0.0011650000   -0.0034089200
   0.0035778800   -0.0027706800   -0.0029656000
  -0.0020410900   -0.0044444300   -0.0068290300
  -0.0008904900   -0.0036569800   -0.0057561400
   0.0031710100   -0.0020799900   -0.0035014500
  -0.0023441900    0.0013346800   -0.0032723700
   0.0030016400    0.0028782200   -0.0185101600
   0.0036735400    0.0012282800    0.0055307400
  -0.0030481800    0.0002426900    0.0029973800
  -0.0001310100    0.0007524900    0.0008939000
  -0.0002488900   -0.0012910000    0.0005506400
  -0.0004658700    0.0000017100    0.0038584500
  -0.0005416400    0.0000598200    0.0026437500
  -0.0008431000    0.0008233200    0.0033055200
  -0.0000895100    0.0003270900    0.0025349100
  -0.0004322700    0.0008154600    0.0040627900
  -0.0005606000    0.0004373100    0.0026638000
  -0.0001387900    0.0002199400    0.0025229500
  -0.0008351200   -0.0003820600    0.0030650200
  -0.0009503300   -0.0007260600    0.0008840200
   0.0011741200   -0.0025837100    0.0034778100
   0.0004415900    0.0003973500    0.0007793500
  -0.0023392900    0.0037837900    0.0070978800
   0.0006105300    0.0044838700   -0.0029656000
   0.0003201600   -0.0028845300   -0.0034089200
   0.0048695300    0.0004545800   -0.0068290300
   0.0148476700   -0.0017131300   -0.0305068600

49   
 -0.0050000000000000   0.0086602540378444   0.0000000000000000
  -0.0109872600    0.0198923100   -0.0030444000
   0.0051478800    0.0033508700    0.0008709400
   0.0028101600   -0.0059500500    0.0023168400
  -0.0027558900   -0.0035142500   -0.0031890200
  -0.0005287500    0.0008407900    0.0004679900
   0.0005546400    0.0000619300    0.0000920800
   0.0004185000   -0.0006730100    0.0005440400
  -0.0004770100   -0.0001965300    0.0008428500
   0.0029255200   -0.0047407400    0.0030569900
  -0.0009160300   -0.0004543300    0.0001404300
   0.0001450500    0.0002148900   -0.0036841500
   0.0007424300    0.0011112400    0.0002576900
  -0.0005208400    0.0011628900    0.0004423100
   0.0005508000    0.0003345100    0.0008487800
   0.0005455500   -0.0009095400    0.0005698700
  -0.0004998100   -0.0006289900    0.0001473700
  -0.0054442400    0.0025442300    0.0023243400
   0.0016617100   -0.0000154500    0.0009462300
   0.0010320000   -0.0013745500   -0.0004380300
  -0.0011776600   -0.0010162200   -0.0011881500
   0.0030384300   -0.0098690100   -0.0048887200
  -0.0009081900    0.0001363800   -0.0003286300
  -0.0246027000    0.0395129600   -0.0142374800
   0.0013510800    0.0006826400   -0.0006097700
  -0.0064002000    0.0199009100    0.0010743900
   0.0038357600    0.0033749000   -0.0026897400
   0.0028498600   -0.0055153100   -0.0033521600
  -0.0025238700   -0.0038990500    0.0023496300
  -0.0050680000    0.0044701300   -0.0007769300
   0.0018473200    0.0002588500   -0.0010068500
   0.0020261800   -0.0020449900    0.0007109200
  -0.0028635900   -0.0029642500    0.0017275500
   0.0004078500   -0.0004322700    0.0011201700
  -0.0001202900   -0.0000520600    0.0003114800
  -0.0001782900    0.0003966500    0.0002231000
  -0.0000006800    0.0001336500    0.0003161000
  -0.0001834800    0.0011914500    0.0009100200
   0.0003459600    0.0002892400    0.0000704300
   0.0004426000   -0.0006835200    0.0002465400
  -0.0006700500   -0.0008677500    0.0006453100
  -0.0046831700    0.0307934500   -0.0092578700
   0.0086177600    0.0003073000    0.0035800800
   0.0034885600   -0.0058745300   -0.0026345400
  -0.0070928300   -0.0017025000   -0.0020247600
   0.0014207300   -0.0025324000   -0.0028145300
  -0.0004011700   -0.0001338400    0.0001335400
   0.0009942800   -0.0006970600    0.0044441300
   0.0002343100    0.0005638000   -0.0001418800
   0.0865324100   -0.1555551400    0.0466458800
  -0.0034843900   -0.0020333400    0.0005167500
  -0.0027189100    0.0042566300   -0.0001500000
   0.0027236900    0.0011161700    0.0001728300
  -0.0000830500   -0.0008610200   -0.0007358300
  -0.0008076400   -0.0004452700    0.0010397000
  -0.0000588700    0.0005417600   -0.0001599400
  -0.0001334200    0.0011491400   -0.0017892400
   0.0007078100    0.0016230800   -0.0024342000
  -0.0004976700    0.0002827400   -0.0002316100
  -0.0001244900   -0.0000557100    0.0005041700
   0.0006040100   -0.0004768400    0.0002128600
   0.0000654400   -0.0001285300   -0.0003236600
  -0.0000941100   -0.0003812000   -0.0002134500
  -0.0001063100    0.0004630100   -0.0004446300
   0.0000582600    0.0003680900   -0.0003891300
  -0.0010443100    0.0091237800   -0.0197650200
  -0.0009795100   -0.0002408500    0.0001789900
  -0.0012498600    0.0013157200    0.0016147800
   0.0008896000    0.0003322200   -0.0001988700
  -0.0017480300    0.0018363900    0.0013007100
   0.0018537100   -0.0004854100    0.0008592000
   0.0059114400    0.0051048500   -0.0125000000
  -0.0019633200    0.0003257400   -0.0006925200
  -0.0346015900    0.0148458300   -0.0015612100
  -0.0002035700   -0.0043507000    0.0002468400
  -0.0001848800    0.0169084600    0.0004120000
  -0.0010680600    0.0037343000    0.0003820500
   0.0010375000    0.0003977300    0.0013409400
  -0.0005200700    0.0002514800   -0.0001080400
  -0.0007964700    0.0003535100   -0.0013226800
   0.0010365000   -0.0003722100   -0.0009303300
  -0.0005165700    0.0008436200   -0.0002936400
   0.0004671100    0.0002895400   -0.0000243800
   0.0008240300   -0.0015142500   -0.0004173500
  -0.0005148900   -0.0003073300   -0.0003887100
  -0.0002892500    0.0002719400   -0.0002969900
   0.0004317500   -0.0000594400   -0.0002264300
   0.0000576500   -0.0003264900   -0.0004230600
  -0.0002886800   -0.0000522000   -0.0003247800
  -0.0012583800   -0.0041718900    0.0066505700
  -0.0020015100   -0.0020029000   -0.0019649400
  -0.0008945600    0.0024692600   -0.0005994600
   0.0008390700    0.0015423700    0.0013346700
  -0.0012304200    0.0056458600    0.0134110700
  -0.0008915400   -0.0003920600   -0.0000525000
  -0.0019976400    0.0024541200   -0.0021404100
   0.0008549200    0.0003424300    0.0004739900
   0.0038804500    0.0154573800    0.0003383800
  -0.0026983400    0.0044224500    0.0007066700
  -0.0145599500    0.0046453900    0.0012968700
   0.0044701300   -0.0053276500    0.0002937700
   0.0009031700   -0.0015965700   -0.0010901000
  -0.0004663900   -0.0002350400   -0.0000336800
  -0.0004773000    0.0009583500    0.0000930700
   0.0005306700    0.0003398000   -0.0002544100
  -0.0008697500   -0.0001711400   -0.0016916000
   0.0000863300   -0.0006500500    0.0000652700
  -0.0002069500    0.0002192400    0.0006504000
   0.0000352800    0.0004963100   -0.0000197600
   0.0002555800   -0.0004627200   -0.0005266300
  -0.0000900800   -0.0000343800   -0.0002230400
  -0.0001640000    0.0002953100   -0.0002497000
   0.0001904600    0.0001287500   -0.0002857800
   0.0027349200    0.0001674800   -0.0011770300
  -0.0017526000    0.0017767100   -0.0011543800
  -0.0016859800    0.0003562500    0.0014425600
   0.0042416200    0.0016287900    0.0069983100
  -0.0007182800    0.0023847500    0.0012930000
   0.0007800700    0.0017901400   -0.0006282500
  -0.0042700700   -0.0032960400   -0.0089243700
  -0.0011228100   -0.0020542400    0.0014609200

49   
  0.0050000000000000  -0.0086602540378444   0.0000000000000000
   0.0107508000   -0.0200227700    0.0033436300
  -0.0051668100   -0.0033912300   -0.0008923400
  -0.0028191700    0.0059720400   -0.0023558600
   0.0027512000    0.0035046400    0.0031650400
   0.0005263300   -0.0008448800   -0.0004794000
  -0.0005578900   -0.0000626700   -0.0001023200
  -0.0004204700    0.0006716800   -0.0005530300
   0.0004757300    0.0001944500   -0.0008546000
  -0.0029417300    0.0047594200   -0.0030672100
   0.0009218600    0.0004527700   -0.0001468700
  -0.0001274100   -0.0002422000    0.0036829400
  -0.0007550500   -0.0011138200   -0.0002665900
   0.0005233400   -0.0011591300   -0.0004358600
  -0.0005484400   -0.0003319200   -0.0008429700
  -0.0005427100    0.0009109600   -0.0005678700
   0.0004986600    0.0006325000   -0.0001441700