120
5

1
  0.0059163718384140   0.0000000000000000   0.0080620434301498
  -0.1266189400    0.0002383700   -0.1526970400
   0.0075193700    0.0003911800   -0.0083948700
   0.0013921900   -0.0045803700   -0.0079664000
   0.0024554800    0.0041928200   -0.0073257600
  -0.0035433500    0.0000003400    0.0104982900
   0.0021901100    0.0000006000    0.0023503600
   0.0006977500   -0.0016995800    0.0028840200
   0.0002541100    0.0016989000    0.0027227000
  -0.0106579400   -0.0149335200    0.0045346700
   0.0022114800    0.0011328800   -0.0002525000
  -0.0021398500   -0.0032101200   -0.0060566700
   0.0190151300    0.0100034800    0.0094925100
   0.0144167600   -0.0064026700    0.0101140600
  -0.0023900700    0.0022991300   -0.0045899100
  -0.0064911800    0.0112909000    0.0067809900
   0.0012576400   -0.0007048700   -0.0007576700
  -0.0008601400   -0.0016551200    0.0042534500
   0.0006969000    0.0000244900    0.0023297400
  -0.0021361200   -0.0003926500    0.0026080300
   0.0022447700    0.0021521500    0.0056095600
  -0.0005879600    0.0015471300    0.0044710000
   0.0004531800   -0.0000016600    0.0024903500
   0.0016742700   -0.0015019900    0.0053222900
  -0.0014054100   -0.0000414300    0.0032127000
   0.0002231100   -0.0003469000    0.0042395800
  -0.0002468100    0.0001643000    0.0038914700
  -0.0003913700    0.0003194400    0.0040422000
   0.0003631400   -0.0001518000    0.0033164200
  -0.0007609700   -0.0000713700    0.0047285300
   0.0009790500   -0.0000049300    0.0031470500
  -0.0000420200   -0.0001811300    0.0034089500
  -0.0000935300    0.0002595900    0.0033709900
  -0.0022014200   -0.0000755700    0.0026713800
   0.0025961700    0.0019384800    0.0053336500
  -0.0011507200   -0.0019588300    0.0044695000
   0.0006929300   -0.0000247900    0.0023340200
   0.0147126900   -0.0064811400   -0.0240938300
   0.0292983700    0.0154960600   -0.0128276400
  -0.0158268500   -0.0091587700   -0.0253336700
   0.0014997500    0.0000015000   -0.0067586800
  -0.0160904400   -0.0004972900    0.0468895200
   0.0032497300    0.0002432200    0.0005285600
   0.0009211700   -0.0027893500   -0.0005324100
   0.0012479400    0.0027074100   -0.0002919300
  -0.0084782600    0.0143407500    0.0053367200
   0.0012546300   -0.0007109300   -0.0007493500
   0.0165978500   -0.0061130700    0.0093610300
  -0.0026662000   -0.0009917500   -0.0023797800
  -0.0010550600    0.0042064700   -0.0051064300
  -0.0001402200   -0.0006022400    0.0000380100
   0.0053632100   -0.0003528400   -0.0028365600
  -0.0025274600   -0.0007576400   -0.0009652800
   0.0258474100   -0.0227538100    0.0316884800
  -0.0025791500   -0.0010642600    0.0028099100
   0.0047089000    0.0002853400    0.0064117500
  -0.0034150900   -0.0028921500    0.0027212800
   0.0044525600    0.0011773600   -0.0027193200
  -0.0022761000    0.0006537300   -0.0013982800
   0.0003723300    0.0004843200    0.0000069600
  -0.0020589600   -0.0034333800   -0.0040726800
  -0.0052738700    0.0044885800    0.0020961000
   0.0028613000   -0.0019993100    0.0063608000
   0.0262449300    0.0198356000    0.0319730800
  -0.0019434300    0.0011459100    0.0026412800
  -0.0030233100   -0.0019116700   -0.0080465600
  -0.0008627000    0.0005908400    0.0021219300
   0.0001239700   -0.0001117600   -0.0007577600
   0.0005349200    0.0004442000   -0.0003624600
  -0.0100276000   -0.0003561800    0.0038758200
   0.0171048400    0.0015178900    0.0145008000
  -0.0005103500   -0.0067452300    0.0023378900
   0.0000962300    0.0047817400    0.0028973400
  -0.0001208600    0.0003857800   -0.0018758300
   0.0002500200    0.0001985700   -0.0033180900
   0.0002962900    0.0006167900   -0.0023812400
  -0.0003419500    0.0005842300   -0.0023480900
   0.0007798400    0.0004935800   -0.0027811900
  -0.0012060600    0.0004819100   -0.0029186900
   0.0001104500    0.0009680400   -0.0024418800
   0.0000868200   -0.0001539300   -0.0020525600
   0.0000655300   -0.0001406900   -0.0027849800
  -0.0012672400   -0.0003225200   -0.0030186600
  -0.0002017600    0.0002747900   -0.0021148300
  -0.0002575500   -0.0005987900   -0.0022484800
  -0.0000370500    0.0001372300   -0.0034299000
  -0.0006613900   -0.0003010700   -0.0018016800
   0.0000180600   -0.0004201400   -0.0022212300
  -0.0007384000   -0.0004663800   -0.0024745400
   0.0007108700   -0.0005362400   -0.0026492800
  -0.0000719500   -0.0004340000   -0.0021835000
   0.0009508700    0.0001501100   -0.0033061600
  -0.0000426500   -0.0002664600   -0.0018471400
   0.0011081000   -0.0008365600   -0.0037242000
  -0.0001715500    0.0000727900   -0.0015511700
  -0.0000555200    0.0000314100   -0.0022737100
   0.0007000000    0.0000873300   -0.0023640400
   0.0135792500   -0.0024926400    0.0197204200
  -0.0082471000   -0.0003883300    0.0016523200
  -0.0001305800    0.0040048000    0.0025708300
  -0.0001684800   -0.0049582900    0.0028729400
   0.0000206200    0.0003486200   -0.0003620800
  -0.0015147200   -0.0027668600   -0.0041391100
   0.0043216500    0.0009691400   -0.0036481300
  -0.0020857500    0.0008604500   -0.0012890000
   0.0120153100    0.0032006600    0.0155274000
  -0.0009858100    0.0005254600    0.0028018800
   0.0027384300    0.0013704600    0.0064777000
  -0.0031649600   -0.0029049200    0.0019213800
  -0.0042272100   -0.0001180300   -0.0083183800
   0.0005889700   -0.0002807200   -0.0003355300
   0.0003735600   -0.0005823100   -0.0005762400
  -0.0000240900   -0.0000671700   -0.0006792600
   0.0116718100   -0.0030230100    0.0124109100
  -0.0020491700   -0.0002013200    0.0034694400
  -0.0035690800    0.0033596500    0.0027635800
   0.0009120500   -0.0003158300    0.0058211800
   0.0048482300   -0.0012847300   -0.0053629200
  -0.0013409700   -0.0006379600   -0.0008622600
  -0.0011203800    0.0030566100   -0.0039680500
   0.0003020400   -0.0000725200   -0.0003101900

1
 -0.0059163718384140   0.0000000000000000  -0.0080620434301498
   0.1259458600    0.0002316400    0.1538443800
  -0.0074937800   -0.0003883900    0.0081817800
  -0.0013922500    0.0045857700    0.0077675000
  -0.0024634100   -0.0041937500    0.0071293300
   0.0035003300    0.0000002800   -0.0102210900
  -0.0021713500   -0.0000026300   -0.0021434900
  -0.0006983600    0.0017012900   -0.0026812000
  -0.0002544200   -0.0016988200   -0.0025190300
   0.0106668800    0.0149297700   -0.0043714800
  -0.0022047600   -0.0011421200    0.0004448800
   0.0021836500    0.0031612800    0.0062052900
  -0.0189123100   -0.0098211300   -0.0092513300
  -0.0143611500    0.0062676900   -0.0103011000
   0.0023972900   -0.0022655900    0.0043195900
   0.0065084000   -0.0112652600   -0.0070230600
  -0.0012544600    0.0007112300    0.0005372900
   0.0008654600    0.0016413300   -0.0044628300
  -0.0006934300   -0.0000289900   -0.0025424800
   0.0021244100    0.0003891600   -0.0028211200
  -0.0022305900   -0.0021121800   -0.0057956100
   0.0005850700   -0.0015521200   -0.0042550200
  -0.0004559400   -0.0000017200   -0.0022776700
  -0.0016787700    0.0015175900   -0.0051153000
   0.0014082700    0.0000382800   -0.0029922500
  -0.0002194900    0.0003418700   -0.0040224700
   0.0002458100   -0.0001659700   -0.0036840900
   0.0003920200   -0.0003112700   -0.0038309500
  -0.0003611300    0.0001540200   -0.0031064300
   0.0007598800    0.0000696200   -0.0049296100
  -0.0009783100    0.0000035000   -0.0033494200
   0.0000422200    0.0001789600   -0.0036132100
   0.0000933000   -0.0002613900   -0.0035758100
   0.0022055300    0.0000828900   -0.0028662600
  -0.0025995900   -0.0019551400   -0.0055439700
   0.0011488200    0.0019618500   -0.0046690300
  -0.0006972900    0.0000287600   -0.0025391700
  -0.0148069600    0.0064809200    0.0241950000
  -0.0294686600   -0.0156632800    0.0131661300
   0.0158612500    0.0090361600    0.0256119000
  -0.0014998500    0.0000015300    0.0069743900
   0.0163183600    0.0005073400   -0.0472770500
  -0.0032755200   -0.0002433400   -0.0003319800
  -0.0009187000    0.0027887200    0.0007421300
  -0.0012474700   -0.0027087400    0.0005017100
   0.0084785900   -0.0143660100   -0.0055636400
  -0.0012574700    0.0007052200    0.0005442900
  -0.0166457200    0.0062054500   -0.0096399200
   0.0026296600    0.0009469800    0.0022089800
   0.0011900700   -0.0042049800    0.0051402000
   0.0002769100    0.0006031500   -0.0000311100
  -0.0052017200    0.0003387600    0.0028429200
   0.0026459300    0.0007456400    0.0009666400
  -0.0247943000    0.0208139200   -0.0307257300
   0.0024773300    0.0010784100   -0.0028131100
  -0.0047751800   -0.0002560900   -0.0064189100
   0.0033561500    0.0028997500   -0.0027165300
  -0.0044956200   -0.0010392500    0.0027248400
   0.0022001800   -0.0005237400    0.0013979500
  -0.0004381000   -0.0003682500    0.0000014500
   0.0020029900    0.0035422600    0.0041019300
   0.0053224000   -0.0045492100   -0.0020955400
  -0.0028477800    0.0019094800   -0.0063672100
  -0.0255439100   -0.0182385000   -0.0312019600
   0.0019410600   -0.0012120800   -0.0026428000
   0.0029229400    0.0017742500    0.0079908500
   0.0007808400   -0.0007045100   -0.0020913500
  -0.0001917900   -0.0000045300    0.0007667000
  -0.0006056400   -0.0005579200    0.0003677700
   0.0100189500    0.0004207600   -0.0038468700
  -0.0167605000   -0.0014634300   -0.0145929200
   0.0005577400    0.0068227200   -0.0023359600
  -0.0000498500   -0.0047426400   -0.0028960500
   0.0001886700   -0.0003661900    0.0018731300
  -0.0001838600   -0.0001763300    0.0033164700
  -0.0002293000   -0.0006014900    0.0023791000
   0.0004073700   -0.0005696500    0.0023482800
  -0.0008420800   -0.0005126600    0.0027778000
   0.0011280700   -0.0004970900    0.0029043100
  -0.0001758200   -0.0009870100    0.0024417600
  -0.0001533100    0.0001349000    0.0020500500
  -0.0001165200    0.0001918800    0.0027797000
   0.0012234200    0.0003740600    0.0030233500
   0.0001537700   -0.0002267900    0.0021122200
   0.0002089100    0.0006488400    0.0022470800
   0.0000861200   -0.0001817800    0.0034172000
   0.0007075500    0.0002534700    0.0017997800
   0.0000323600    0.0003657500    0.0022169200
   0.0007868200    0.0004109800    0.0024722500
  -0.0007321800    0.0004698600    0.0026476900
   0.0000522700    0.0003697900    0.0021836300
  -0.0009706200   -0.0002241300    0.0033044200
   0.0000257400    0.0001981800    0.0018446100
  -0.0010836600    0.0008937500    0.0037108700
   0.0001876100   -0.0000072900    0.0015506200
   0.0000751200    0.0000388800    0.0022714200
  -0.0006788400   -0.0000158200    0.0023584100
  -0.0136436100    0.0024880200   -0.0196564700
   0.0083504100    0.0003737400   -0.0016654400
   0.0001960400   -0.0040215300   -0.0025760100
   0.0002383000    0.0049493200   -0.0028764000
  -0.0001561200   -0.0003462300    0.0003631700
   0.0013730600    0.0027584700    0.0041192500
  -0.0044775400   -0.0009651300    0.0036401800
   0.0019530700   -0.0008675600    0.0012925000
  -0.0127826600   -0.0020741200   -0.0168053600
   0.0009875000   -0.0004642600   -0.0027973000
  -0.0027631000   -0.0013145600   -0.0064813200
   0.0031489200    0.0029804800   -0.0019268600
   0.0043071000   -0.0000060200    0.0083510400
  -0.0005076400    0.0001614700    0.0003161400
  -0.0003070900    0.0004621100    0.0005752800
   0.0000904100   -0.0000476200    0.0006771900
  -0.0123565400    0.0019064700   -0.0135893700
   0.0020179400    0.0001584200   -0.0034643500
   0.0035210400   -0.0034181600   -0.0027677300
  -0.0009617400    0.0002794200   -0.0058270800
  -0.0047972000    0.0014018700    0.0053693200
   0.0014136800    0.0007610300    0.0008645300
   0.0011789900   -0.0029341800    0.0039442000
  -0.0002298100    0.0001892100    0.0003071200

49
 -0.0050000000000000   0.0086602540378444   0.0000000000000000
   0.0029185700   -0.0047305700    0.0029613700
  -0.0008989700   -0.0004377200    0.0000403600
   0.0001741700    0.0002069500   -0.0038684100
   0.0007186800    0.0011153300    0.0001597300
   0.0030882400   -0.0100399200   -0.0048252700
  -0.0009228900    0.0001311200   -0.0002219000
  -0.0273680500    0.0436559500   -0.0169552400
   0.0013656200    0.0007159300   -0.0004894600
  -0.0078055300    0.0200278900    0.0001003500
   0.0039100800    0.0033728400   -0.0025679900
   0.0028493000   -0.0055452300   -0.0032288100
  -0.0025357600   -0.0039228000    0.0024675100
  -0.0033001900    0.0323887400   -0.0105602300
   0.0086142100    0.0003108200    0.0035105400
   0.0035117900   -0.0058714700   -0.0027138100
  -0.0071461800   -0.0018020600   -0.0021268100
  -0.0122039000    0.0199385100   -0.0021940000
   0.0051998100    0.0033718700    0.0008040800
   0.0028250300   -0.0059999900    0.0022145700
  -0.0027638300   -0.0035254200   -0.0032829000
  -0.0005218200    0.0011740400    0.0005258300
   0.0005517300    0.0003361600    0.0009463600
   0.0005459400   -0.0009182300    0.0006641400
  -0.0005003300   -0.0006319300    0.0002415000
  -0.0050905800    0.0044719600   -0.0007246800
   0.0018797300    0.0002541500   -0.0009326200
   0.0020329300   -0.0020602300    0.0008171300
  -0.0028740700   -0.0029357500    0.0018167700
   0.0014118300   -0.0025533800   -0.0029268800
  -0.0004016800   -0.0001366900    0.0000264900
   0.0010019400   -0.0006781400    0.0043896500
   0.0002379800    0.0005709200   -0.0002512900
  -0.0005364700    0.0008414000    0.0003540700
   0.0005611000    0.0000668200   -0.0000173100
   0.0004225200   -0.0006734900    0.0004349500
  -0.0004809400   -0.0001979300    0.0007383800
  -0.0054776300    0.0025821900    0.0024277200
   0.0016711900   -0.0000135600    0.0010589000
   0.0010423500   -0.0013803900   -0.0003392500
  -0.0011920700   -0.0010514200   -0.0011033600
   0.0004076700   -0.0004367600    0.0012182400
  -0.0001161400   -0.0000478900    0.0004049100
  -0.0001749800    0.0003976400    0.0003064900
  -0.0000010700    0.0001364000    0.0004093500
  -0.0001829100    0.0012056900    0.0008005500
   0.0003536400    0.0002845300   -0.0000458700
   0.0004430500   -0.0006984500    0.0001381600
  -0.0006750100   -0.0008648600    0.0005369700
   0.0907969200   -0.1611650200    0.0511741800
  -0.0034334100   -0.0020393100    0.0005008600
  -0.0026637300    0.0042656400   -0.0001400600
   0.0027680800    0.0011324600    0.0001700300
  -0.0010768000    0.0091377300   -0.0198239400
  -0.0010562700   -0.0002396300    0.0001728200
  -0.0013146900    0.0013411900    0.0016111500
   0.0008546300    0.0003461200   -0.0001998600
  -0.0351487800    0.0151059500   -0.0016151900
  -0.0002510900   -0.0043018800    0.0002541400
  -0.0002335000    0.0166962900    0.0003671700
  -0.0010741200    0.0038200700    0.0003824000
  -0.0012710800   -0.0042387700    0.0066381700
  -0.0019948400   -0.0020674800   -0.0019787300
  -0.0008713000    0.0024157100   -0.0006031300
   0.0008537500    0.0015025700    0.0013188500
   0.0038638400    0.0151776900    0.0002816600
  -0.0027677800    0.0044252100    0.0006857700
  -0.0143501300    0.0044957700    0.0012639100
   0.0045176000   -0.0053932500    0.0002588200
   0.0027862600    0.0002126200   -0.0011962400
  -0.0017260700    0.0018248800   -0.0011676700
  -0.0016514600    0.0004023500    0.0014265600
   0.0043068800    0.0017581300    0.0070765900
  -0.0000202700   -0.0008653300   -0.0007267900
  -0.0007650200   -0.0004382400    0.0010584500
  -0.0000076700    0.0005474200   -0.0001552200
  -0.0000755100    0.0011591200   -0.0018005400
  -0.0017994900    0.0018523100    0.0013108100
   0.0018057100   -0.0004806400    0.0008541900
   0.0058637200    0.0051148100   -0.0125755100
  -0.0020216800    0.0003076000   -0.0006948000
   0.0010153400    0.0004470700    0.0013523000
  -0.0005532200    0.0002986500   -0.0000985900
  -0.0008285800    0.0004030700   -0.0013298700
   0.0010138700   -0.0003255600   -0.0009232100
  -0.0012395600    0.0056350300    0.0134016100
  -0.0008609500   -0.0004346100   -0.0000555100
  -0.0019821000    0.0024423500   -0.0021818700
   0.0008770900    0.0002930600    0.0004645800
   0.0008789500   -0.0016499200   -0.0010734500
  -0.0004971100   -0.0002862000   -0.0000257000
  -0.0005042300    0.0009228100    0.0000979900
   0.0005093900    0.0002948100   -0.0002477500
  -0.0006881200    0.0024413600    0.0012861200
   0.0008020300    0.0018378100   -0.0006286300
  -0.0042554000   -0.0031888200   -0.0088961800
  -0.0011202900   -0.0020275400    0.0014697600
   0.0007658000    0.0016248600   -0.0024499600
  -0.0004482600    0.0002789300   -0.0002369400
  -0.0000751500   -0.0000511500    0.0005128100
   0.0006731500   -0.0004851300    0.0002262800
   0.0000136500   -0.0001331300   -0.0003122200
  -0.0001453300   -0.0003913200   -0.0002057800
  -0.0001552100    0.0004625500   -0.0004405700
   0.0000051600    0.0003700000   -0.0003852300
  -0.0005384200    0.0009019100   -0.0002940600
   0.0004461000    0.0003407200   -0.0000259300
   0.0008079400   -0.0014670600   -0.0004033100
  -0.0005384700   -0.0002592400   -0.0003916000
  -0.0002667100    0.0002338300   -0.0002937300
   0.0004624600   -0.0001038900   -0.0002190900
   0.0000869900   -0.0003747900   -0.0004131500
  -0.0002652900   -0.0000965000   -0.0003192800
  -0.0009064900   -0.0002065900   -0.0016964600
   0.0000496900   -0.0007102500    0.0000809900
  -0.0002429200    0.0001846100    0.0006648100
   0.0000056100    0.0004516900   -0.0000202100
   0.0002818700   -0.0004195900   -0.0005159100
  -0.0000697900    0.0000111400   -0.0002153000
  -0.0001427000    0.0003438900   -0.0002439500
   0.0002183600    0.0001754700   -0.0002816400

49
  0.0050000000000000  -0.0086602540378444   0.0000000000000000
  -0.0029323300    0.0047500500   -0.0031733500
   0.0009065000    0.0004427100   -0.0002494700
  -0.0001513500   -0.0002297200    0.0036660400
  -0.0007299500   -0.0011144800   -0.0003714700
  -0.0030934200    0.0100416300    0.0050100600
   0.0009413100   -0.0001095200    0.0004353000
   0.0296116600   -0.0468773300    0.0194769500
  -0.0014199700   -0.0007100900    0.0007214600
   0.0074567300   -0.0200688800   -0.0002317900
  -0.0039040200   -0.0034135300    0.0028109500
  -0.0028561500    0.0055691700    0.0034801100
   0.0025262100    0.0039195000   -0.0022369000
   0.0038278400   -0.0321511400    0.0100391900
  -0.0086157800   -0.0002944200   -0.0036945900
  -0.0035383300    0.0058972600    0.0025344300
   0.0072119800    0.0017523600    0.0019444600
   0.0119602600   -0.0200756500    0.0023062600
  -0.0052127900   -0.0034104200   -0.0010306900
  -0.0028326300    0.0060250900   -0.0024577900
   0.0027547700    0.0035201700    0.0030584000
   0.0005226700   -0.0011743900   -0.0003165900
  -0.0005539000   -0.0003379100   -0.0007404900
  -0.0005452100    0.0009171000   -0.0004579400
   0.0004997200    0.0006318400   -0.0000327000
   0.0051054200   -0.0044738300    0.0009481800
  -0.0018790800   -0.0002461600    0.0011347500
  -0.0020423300    0.0020629200   -0.0006207100
   0.0028754800    0.0029241700   -0.0016067300
  -0.0014185500    0.0025624200    0.0027229500
   0.0004040900    0.0001362200   -0.0002378800
  -0.0009890000    0.0006722200   -0.0046076100
  -0.0002444800   -0.0005733500    0.0000427900
   0.0005366500   -0.0008407600   -0.0005661700
  -0.0005617500   -0.0000640900   -0.0001940400
  -0.0004237500    0.0006744500   -0.0006483800
   0.0004801300    0.0001976800   -0.0009503500
   0.0054843400   -0.0025712300   -0.0022381300
  -0.0016734400    0.0000183300   -0.0008480200
  -0.0010452600    0.0013789700    0.0005577500
   0.0011851400    0.0010312500    0.0012979600
  -0.0004078100    0.0004394600   -0.0010140800
   0.0001185800    0.0000478000   -0.0001990000
   0.0001783900   -0.0003995500   -0.0001038300
   0.0000003500   -0.0001363600   -0.0002049300
   0.0001806300   -0.0012058700   -0.0010186300
  -0.0003522500   -0.0002866800   -0.0001685500
  -0.0004415100    0.0006944600   -0.0003499900
   0.0006751600    0.0008659700   -0.0007507400
  -0.0925877900    0.1640321900   -0.0532776700
   0.0035722500    0.0020421700   -0.0005049400
   0.0028058400   -0.0042762500    0.0001383900
  -0.0026413700   -0.0011243000   -0.0001731600
   0.0010451400   -0.0091413700    0.0196894900
   0.0009878100    0.0002538100   -0.0001724200
   0.0012542500   -0.0013207100   -0.0016304900
  -0.0009091400   -0.0003206900    0.0002045100
   0.0344794100   -0.0147680400    0.0016139500
   0.0001269400    0.0044138700   -0.0002607400
   0.0001465100   -0.0168545900   -0.0003653000
   0.0010340700   -0.0036922800   -0.0003837700
   0.0012524700    0.0042189700   -0.0066361600
   0.0020219800    0.0019958000    0.0019823800
   0.0008927900   -0.0024832800    0.0005979000
  -0.0008506400   -0.0015583400   -0.0013352300
  -0.0038754500   -0.0151157700   -0.0002841700
   0.0026831500   -0.0045575900   -0.0006873600
   0.0145148800   -0.0046643200   -0.0012691900
  -0.0044215800    0.0054071100   -0.0002845000
  -0.0027417500   -0.0001765900    0.0011944100
   0.0017770800   -0.0017858300    0.0011564400
   0.0017079800   -0.0003548600   -0.0014398900
  -0.0042802700   -0.0016401600   -0.0070473600
   0.0000826000    0.0008855300    0.0007328400
   0.0008264100    0.0004538400   -0.0010571100
   0.0000725800   -0.0005321100    0.0001595200
   0.0001329500   -0.0011412000    0.0018047600
   0.0017447500   -0.0018784600   -0.0013020600
  -0.0018674100    0.0004610800   -0.0008567600
  -0.0059803600   -0.0051000600    0.0126344700
   0.0019727700   -0.0003251500    0.0007000900
  -0.0010594600   -0.0004008700   -0.0013502200
   0.0005086600   -0.0002545000    0.0001033100
   0.0007856900   -0.0003574700    0.0013369000
  -0.0010605800    0.0003714600    0.0009269600
   0.0012859100   -0.0056800600   -0.0133310200
   0.0009037400    0.0003897500    0.0000502200
   0.0020345300   -0.0024942600    0.0022061700
  -0.0008275200   -0.0003340400   -0.0004748200
  -0.0008992800    0.0015874500    0.0010765200
   0.0004827100    0.0002255400    0.0000288300
   0.0004889400   -0.0009886000   -0.0000908600
  -0.0005263500   -0.0003562300    0.0002517600
   0.0007078300   -0.0023859500   -0.0012818600
  -0.0007951100   -0.0017803100    0.0006386200
   0.0042804100    0.0032994400    0.0089516600
   0.0011468100    0.0020829300   -0.0014817300
  -0.0007018200   -0.0016439000    0.0024507500
   0.0005073100   -0.0002963100    0.0002335200
   0.0001332600    0.0000418800   -0.0005133600
  -0.0006067400    0.0004677000   -0.0002231600
  -0.0001456200    0.0001340300    0.0003194900
   0.0000152400    0.0003889000    0.0002091800
   0.0000261800   -0.0004654000    0.0004437300
  -0.0001373100   -0.0003706100    0.0003879700
   0.0005258500   -0.0008437000    0.0002902700
  -0.0004624600   -0.0002807000    0.0000240700
  -0.0008211000    0.0015271300    0.0004090200
   0.0005261800    0.0003212900    0.0003907800
   0.0003302300   -0.0003467000    0.0002953700
  -0.0003973100   -0.0000096500    0.0002243200
  -0.0000215600    0.0002610100    0.0004181100
   0.0003308500   -0.0000154000    0.0003230700
   0.0008640400    0.0001594300    0.0016981200
  -0.0000983400    0.0006648700   -0.0000794400
   0.0001909600   -0.0002216100   -0.0006607400
  -0.0000472100   -0.0004967100    0.0000188000
  -0.0002148500    0.0005323200    0.0005214700
   0.0001346900    0.0001020000    0.0002185500
   0.0002057400   -0.0002308800    0.0002477800
  -0.0001509500   -0.0000635300    0.0002845500

49
  0.0000000000000000   0.0000000000000000   0.0100000000000000
  -0.0046446700    0.0060312600   -0.0030432100
   0.0012550400    0.0006213400   -0.0009905300
   0.0028434800   -0.0051582500   -0.0057197100
  -0.0008815600   -0.0003574600   -0.0006607400
   0.0014682600   -0.0024356100    0.0070092200
  -0.0000528000    0.0002607500    0.0035362500
   0.0094159800   -0.0170619900    0.0322204000
   0.0006655900    0.0002348600    0.0031189700
  -0.0062935100   -0.0030569500    0.0198425200
   0.0050647600   -0.0006370500    0.0058420800
  -0.0001010700   -0.0000357200    0.0035772700
   0.0001397900    0.0015072800    0.0033795800
  -0.0089282700   -0.0162002000    0.0317312100
  -0.0006777600    0.0002333700    0.0028699400
   0.0000587100    0.0002344900    0.0032908700
  -0.0014696300   -0.0024493200    0.0067519900
   0.0052133000   -0.0031203900    0.0205505000
  -0.0050606200   -0.0006413200    0.0057033500
  -0.0001352000    0.0015042900    0.0032047500
   0.0001048600   -0.0000295100    0.0033996200
   0.0008942100   -0.0002884000   -0.0039971900
  -0.0007032000   -0.0001391200   -0.0029921900
  -0.0004859900    0.0009027500   -0.0025660100
  -0.0000166700   -0.0004622600   -0.0024239400
  -0.0028600900   -0.0051787700   -0.0055105600
   0.0008897800   -0.0003586300   -0.0004391300
  -0.0012576600    0.0006219200   -0.0007690000
   0.0046694800    0.0060571100   -0.0028313500
   0.0022453800   -0.0035500000   -0.0035826600
  -0.0004607600   -0.0001816100   -0.0008843000
  -0.0036263800    0.0029016100   -0.0072852300
   0.0009604000    0.0002604700   -0.0009974600
  -0.0003108200   -0.0005119600   -0.0039914300
   0.0003103100   -0.0000676500   -0.0026537100
  -0.0003405000    0.0003931700   -0.0027655200
   0.0005132200    0.0003660200   -0.0034329000
   0.0036008000    0.0028915500   -0.0070564700
  -0.0009535600    0.0002600400   -0.0008002200
   0.0004598800   -0.0001820500   -0.0006887500
  -0.0022355900   -0.0035365400   -0.0033735400
  -0.0005091700    0.0003613400   -0.0032224700
   0.0003385000    0.0003915100   -0.0025586300
   0.0003071300   -0.0005099100   -0.0037819100
  -0.0003061600   -0.0000674400   -0.0024480600
  -0.0008888100   -0.0002866900   -0.0042042900
   0.0006975700   -0.0001388900   -0.0032018500
   0.0000161100   -0.0004597300   -0.0026376800
   0.0004834700    0.0008975400   -0.0027784200
   0.0006129600    0.0602832000   -0.1640987200
   0.0000612400    0.0005814700   -0.0020479900
   0.0003737900    0.0000194300   -0.0021956000
  -0.0002460100    0.0000183800   -0.0021946900
   0.0070592300   -0.0185185500    0.0210403100
  -0.0008999800   -0.0002946500   -0.0009008500
  -0.0007951600    0.0014366500   -0.0011141700
   0.0014708800    0.0006437400   -0.0012666300
   0.0016462400   -0.0012242800   -0.0081149700
  -0.0004452700   -0.0000870800   -0.0053248500
  -0.0002905800   -0.0012253400   -0.0053275200
  -0.0004165700   -0.0005116400   -0.0020285400
  -0.0132410800   -0.0004634900    0.0125993000
   0.0021948500    0.0000833000   -0.0006261100
   0.0000625100   -0.0017093800   -0.0009522500
  -0.0004597900    0.0015761000   -0.0011046000
   0.0002244600   -0.0014023000   -0.0053175600
   0.0003497400   -0.0006294200   -0.0020269800
   0.0002853400   -0.0001437500   -0.0053206400
  -0.0015837700   -0.0012669200   -0.0081541900
  -0.0019517800   -0.0028192500   -0.0006277500
   0.0013446500   -0.0006922100   -0.0011029300
  -0.0005769700    0.0004077900   -0.0009493200
   0.0066133600    0.0140611300    0.0126084700
   0.0008673700    0.0007530000    0.0020527300
  -0.0012158400   -0.0001155900    0.0020523500
   0.0001097000   -0.0002181000    0.0010127000
   0.0006818500   -0.0024548600    0.0039072700
  -0.0015452900    0.0006302800   -0.0012840400
   0.0007359300    0.0014229700   -0.0011332300
  -0.0072432300   -0.0188515500    0.0213861200
   0.0008385300   -0.0003117400   -0.0009236700
   0.0009046600    0.0014534200    0.0025581700
   0.0000774000   -0.0000129700    0.0009607600
   0.0013131200   -0.0008433200    0.0024813500
  -0.0013803100    0.0000382500    0.0025599600
  -0.0066635000    0.0142128800    0.0127730600
   0.0006229400    0.0003625600   -0.0009725000
   0.0020089200   -0.0028770700   -0.0006475200
  -0.0013090100   -0.0007425300   -0.0011233800
  -0.0004141500    0.0009766900    0.0039662000
  -0.0003012700    0.0000883800    0.0010899700
  -0.0000325700   -0.0001571600    0.0011937400
  -0.0003996000   -0.0002276600    0.0010898400
   0.0004807500    0.0016499000   -0.0011211600
  -0.0000427800   -0.0016608200   -0.0009699600
   0.0134925800   -0.0004108400    0.0127812500
  -0.0021911400    0.0001453400   -0.0006463000
  -0.0006105800   -0.0024563300    0.0038880200
  -0.0000467100   -0.0002357000    0.0010155200
  -0.0007996500    0.0007304700    0.0020514600
   0.0012717200   -0.0001336600    0.0020515500
  -0.0000648100   -0.0003648400    0.0024037700
  -0.0000677800   -0.0002407800    0.0020264700
  -0.0000106500   -0.0004783300    0.0019599900
  -0.0001234800   -0.0004804300    0.0019617400
   0.0003837200   -0.0001620400    0.0010932000
   0.0000171000   -0.0000926200    0.0011961400
   0.0004002500    0.0010356100    0.0039571900
   0.0002844700    0.0001515200    0.0010930600
   0.0003524600    0.0000090600    0.0017358900
   0.0002561200    0.0000985700    0.0021715600
   0.0004483500    0.0003005300    0.0026143100
   0.0003281000    0.0001003300    0.0017377500
   0.0013226700   -0.0000085900    0.0025533500
  -0.0013542400   -0.0008815500    0.0024777100
  -0.0009463700    0.0014003300    0.0025529900
  -0.0001238500   -0.0000575100    0.0009648200
  -0.0003822400    0.0004174900    0.0026145700
  -0.0002608100    0.0002142700    0.0017369600
  -0.0001888100    0.0002120200    0.0021701500
  -0.0002879100    0.0001205600    0.0017374400
