phonopy:
  version: "2.26.6"
  frequency_unit_conversion_factor: 15.633302
  symmetry_tolerance: 1.00000e-05
  configuration:
    cell_filename: "POSCAR-unitcell"
    create_displacements: ".true."
    primitive_axes: "auto"
    dim: "2 2 1"

physical_unit:
  atomic_mass: "AMU"
  length: "angstrom"

space_group:
  type: "R-3c"
  number: 167
  Hall_symbol: "-R 3 2\"c"

primitive_matrix:
- [  0.666666666666667, -0.333333333333333, -0.333333333333333 ]
- [  0.333333333333333,  0.333333333333333, -0.666666666666667 ]
- [  0.333333333333333,  0.333333333333333,  0.333333333333333 ]

supercell_matrix:
- [   2,   0,   0 ]
- [   0,   2,   0 ]
- [   0,   0,   1 ]

primitive_cell:
  lattice:
  - [     2.387113172649497,     1.378200432815288,     4.337119797109073 ] # a
  - [    -2.387113172649497,     1.378200432815288,     4.337119797109073 ] # b
  - [    -0.000000000000000,    -2.756400865630577,     4.337119797109073 ] # c
  points:
  - symbol: Al # 1
    coordinates: [  0.352093707895797,  0.352093707895790,  0.352093707895797 ]
    mass: 26.981539
  - symbol: Al # 2
    coordinates: [  0.647906292104210,  0.647906292104203,  0.647906292104210 ]
    mass: 26.981539
  - symbol: Al # 3
    coordinates: [  0.147906292104210,  0.147906292104210,  0.147906292104210 ]
    mass: 26.981539
  - symbol: Al # 4
    coordinates: [  0.852093707895790,  0.852093707895797,  0.852093707895790 ]
    mass: 26.981539
  - symbol: O  # 5
    coordinates: [  0.555808653788013,  0.944191346211987,  0.250000000000000 ]
    mass: 15.999400
  - symbol: O  # 6
    coordinates: [  0.444191346211987,  0.055808653788020,  0.750000000000000 ]
    mass: 15.999400
  - symbol: O  # 7
    coordinates: [  0.250000000000000,  0.555808653788013,  0.944191346211987 ]
    mass: 15.999400
  - symbol: O  # 8
    coordinates: [  0.750000000000000,  0.444191346211994,  0.055808653788013 ]
    mass: 15.999400
  - symbol: O  # 9
    coordinates: [  0.944191346211987,  0.250000000000000,  0.555808653788013 ]
    mass: 15.999400
  - symbol: O  # 10
    coordinates: [  0.055808653788013,  0.750000000000007,  0.444191346211987 ]
    mass: 15.999400
  reciprocal_lattice: # without 2pi
  - [     0.209458020561732,     0.120930644555242,     0.076855920271217 ] # a*
  - [    -0.209458020561732,     0.120930644555242,     0.076855920271217 ] # b*
  - [     0.000000000000000,    -0.241861289110485,     0.076855920271217 ] # c*

unit_cell:
  lattice:
  - [     4.774226345298994,     0.000000000000000,    -0.000000000000000 ] # a
  - [    -2.387113172649497,     4.134601298445865,     0.000000000000000 ] # b
  - [    -0.000000000000000,     0.000000000000000,    13.011359391327222 ] # c
  points:
  - symbol: Al # 1
    coordinates: [  0.333333333333336,  0.666666666666664,  0.018760374562461 ]
    mass: 26.981539
    reduced_to: 1
  - symbol: Al # 2
    coordinates: [  0.333333333333336,  0.666666666666664,  0.314572958770874 ]
    mass: 26.981539
    reduced_to: 2
  - symbol: Al # 3
    coordinates: [  0.000000000000000,  0.000000000000000,  0.147906292104210 ]
    mass: 26.981539
    reduced_to: 3
  - symbol: Al # 4
    coordinates: [  0.666666666666664,  0.333333333333336,  0.185427041229126 ]
    mass: 26.981539
    reduced_to: 4
  - symbol: Al # 5
    coordinates: [  0.000000000000000,  0.000000000000000,  0.352093707895790 ]
    mass: 26.981539
    reduced_to: 1
  - symbol: Al # 6
    coordinates: [  0.000000000000000,  0.000000000000000,  0.647906292104210 ]
    mass: 26.981539
    reduced_to: 2
  - symbol: Al # 7
    coordinates: [  0.666666666666664,  0.333333333333336,  0.481239625437539 ]
    mass: 26.981539
    reduced_to: 3
  - symbol: Al # 8
    coordinates: [  0.333333333333336,  0.666666666666664,  0.518760374562461 ]
    mass: 26.981539
    reduced_to: 4
  - symbol: Al # 9
    coordinates: [  0.666666666666664,  0.333333333333336,  0.685427041229126 ]
    mass: 26.981539
    reduced_to: 1
  - symbol: Al # 10
    coordinates: [  0.666666666666664,  0.333333333333336,  0.981239625437539 ]
    mass: 26.981539
    reduced_to: 2
  - symbol: Al # 11
    coordinates: [  0.333333333333336,  0.666666666666664,  0.814572958770874 ]
    mass: 26.981539
    reduced_to: 3
  - symbol: Al # 12
    coordinates: [  0.000000000000000,  0.000000000000000,  0.852093707895790 ]
    mass: 26.981539
    reduced_to: 4
  - symbol: O  # 13
    coordinates: [  0.305808653788013,  0.000000000000000,  0.250000000000000 ]
    mass: 15.999400
    reduced_to: 13
  - symbol: O  # 14
    coordinates: [  0.360858012878651,  0.333333333333336,  0.083333333333336 ]
    mass: 15.999400
    reduced_to: 14
  - symbol: O  # 15
    coordinates: [  0.000000000000000,  0.305808653788013,  0.250000000000000 ]
    mass: 15.999400
    reduced_to: 15
  - symbol: O  # 16
    coordinates: [  0.666666666666664,  0.027524679545323,  0.083333333333336 ]
    mass: 15.999400
    reduced_to: 16
  - symbol: O  # 17
    coordinates: [  0.694191346211987,  0.694191346211987,  0.250000000000000 ]
    mass: 15.999400
    reduced_to: 17
  - symbol: O  # 18
    coordinates: [  0.972475320454677,  0.639141987121349,  0.083333333333336 ]
    mass: 15.999400
    reduced_to: 18
  - symbol: O  # 19
    coordinates: [  0.972475320454677,  0.333333333333336,  0.583333333333336 ]
    mass: 15.999400
    reduced_to: 13
  - symbol: O  # 20
    coordinates: [  0.027524679545323,  0.666666666666664,  0.416666666666664 ]
    mass: 15.999400
    reduced_to: 14
  - symbol: O  # 21
    coordinates: [  0.666666666666664,  0.639141987121349,  0.583333333333336 ]
    mass: 15.999400
    reduced_to: 15
  - symbol: O  # 22
    coordinates: [  0.333333333333336,  0.360858012878651,  0.416666666666664 ]
    mass: 15.999400
    reduced_to: 16
  - symbol: O  # 23
    coordinates: [  0.360858012878651,  0.027524679545323,  0.583333333333336 ]
    mass: 15.999400
    reduced_to: 17
  - symbol: O  # 24
    coordinates: [  0.639141987121349,  0.972475320454677,  0.416666666666664 ]
    mass: 15.999400
    reduced_to: 18
  - symbol: O  # 25
    coordinates: [  0.639141987121349,  0.666666666666664,  0.916666666666664 ]
    mass: 15.999400
    reduced_to: 13
  - symbol: O  # 26
    coordinates: [  0.694191346211987,  0.000000000000000,  0.750000000000000 ]
    mass: 15.999400
    reduced_to: 14
  - symbol: O  # 27
    coordinates: [  0.333333333333336,  0.972475320454677,  0.916666666666664 ]
    mass: 15.999400
    reduced_to: 15
  - symbol: O  # 28
    coordinates: [ -0.000000000000000,  0.694191346211987,  0.750000000000000 ]
    mass: 15.999400
    reduced_to: 16
  - symbol: O  # 29
    coordinates: [  0.027524679545323,  0.360858012878651,  0.916666666666664 ]
    mass: 15.999400
    reduced_to: 17
  - symbol: O  # 30
    coordinates: [  0.305808653788013,  0.305808653788013,  0.750000000000000 ]
    mass: 15.999400
    reduced_to: 18

supercell:
  lattice:
  - [     9.548452690597989,     0.000000000000000,     0.000000000000000 ] # a
  - [    -4.774226345298994,     8.269202596891731,     0.000000000000000 ] # b
  - [     0.000000000000000,     0.000000000000000,    13.011359391327222 ] # c
  points:
  - symbol: Al # 1
    coordinates: [  0.166666666666668,  0.333333333333332,  0.018760374562461 ]
    mass: 26.981539
    reduced_to: 1
  - symbol: Al # 2
    coordinates: [  0.666666666666668,  0.333333333333332,  0.018760374562461 ]
    mass: 26.981539
    reduced_to: 1
  - symbol: Al # 3
    coordinates: [  0.166666666666668,  0.833333333333332,  0.018760374562461 ]
    mass: 26.981539
    reduced_to: 1
  - symbol: Al # 4
    coordinates: [  0.666666666666668,  0.833333333333332,  0.018760374562461 ]
    mass: 26.981539
    reduced_to: 1
  - symbol: Al # 5
    coordinates: [  0.166666666666668,  0.333333333333332,  0.314572958770874 ]
    mass: 26.981539
    reduced_to: 5
  - symbol: Al # 6
    coordinates: [  0.666666666666668,  0.333333333333332,  0.314572958770874 ]
    mass: 26.981539
    reduced_to: 5
  - symbol: Al # 7
    coordinates: [  0.166666666666668,  0.833333333333332,  0.314572958770874 ]
    mass: 26.981539
    reduced_to: 5
  - symbol: Al # 8
    coordinates: [  0.666666666666668,  0.833333333333332,  0.314572958770874 ]
    mass: 26.981539
    reduced_to: 5
  - symbol: Al # 9
    coordinates: [  0.000000000000000,  0.000000000000000,  0.147906292104210 ]
    mass: 26.981539
    reduced_to: 9
  - symbol: Al # 10
    coordinates: [  0.500000000000000,  0.000000000000000,  0.147906292104210 ]
    mass: 26.981539
    reduced_to: 9
  - symbol: Al # 11
    coordinates: [  0.000000000000000,  0.500000000000000,  0.147906292104210 ]
    mass: 26.981539
    reduced_to: 9
  - symbol: Al # 12
    coordinates: [  0.500000000000000,  0.500000000000000,  0.147906292104210 ]
    mass: 26.981539
    reduced_to: 9
  - symbol: Al # 13
    coordinates: [  0.333333333333332,  0.166666666666668,  0.185427041229126 ]
    mass: 26.981539
    reduced_to: 13
  - symbol: Al # 14
    coordinates: [  0.833333333333332,  0.166666666666668,  0.185427041229126 ]
    mass: 26.981539
    reduced_to: 13
  - symbol: Al # 15
    coordinates: [  0.333333333333332,  0.666666666666668,  0.185427041229126 ]
    mass: 26.981539
    reduced_to: 13
  - symbol: Al # 16
    coordinates: [  0.833333333333332,  0.666666666666668,  0.185427041229126 ]
    mass: 26.981539
    reduced_to: 13
  - symbol: Al # 17
    coordinates: [  0.000000000000000,  0.000000000000000,  0.352093707895790 ]
    mass: 26.981539
    reduced_to: 1
  - symbol: Al # 18
    coordinates: [  0.500000000000000,  0.000000000000000,  0.352093707895790 ]
    mass: 26.981539
    reduced_to: 1
  - symbol: Al # 19
    coordinates: [  0.000000000000000,  0.500000000000000,  0.352093707895790 ]
    mass: 26.981539
    reduced_to: 1
  - symbol: Al # 20
    coordinates: [  0.500000000000000,  0.500000000000000,  0.352093707895790 ]
    mass: 26.981539
    reduced_to: 1
  - symbol: Al # 21
    coordinates: [  0.000000000000000,  0.000000000000000,  0.647906292104210 ]
    mass: 26.981539
    reduced_to: 5
  - symbol: Al # 22
    coordinates: [  0.500000000000000,  0.000000000000000,  0.647906292104210 ]
    mass: 26.981539
    reduced_to: 5
  - symbol: Al # 23
    coordinates: [  0.000000000000000,  0.500000000000000,  0.647906292104210 ]
    mass: 26.981539
    reduced_to: 5
  - symbol: Al # 24
    coordinates: [  0.500000000000000,  0.500000000000000,  0.647906292104210 ]
    mass: 26.981539
    reduced_to: 5
  - symbol: Al # 25
    coordinates: [  0.333333333333332,  0.166666666666668,  0.481239625437539 ]
    mass: 26.981539
    reduced_to: 9
  - symbol: Al # 26
    coordinates: [  0.833333333333332,  0.166666666666668,  0.481239625437539 ]
    mass: 26.981539
    reduced_to: 9
  - symbol: Al # 27
    coordinates: [  0.333333333333332,  0.666666666666668,  0.481239625437539 ]
    mass: 26.981539
    reduced_to: 9
  - symbol: Al # 28
    coordinates: [  0.833333333333332,  0.666666666666668,  0.481239625437539 ]
    mass: 26.981539
    reduced_to: 9
  - symbol: Al # 29
    coordinates: [  0.166666666666668,  0.333333333333332,  0.518760374562461 ]
    mass: 26.981539
    reduced_to: 13
  - symbol: Al # 30
    coordinates: [  0.666666666666668,  0.333333333333332,  0.518760374562461 ]
    mass: 26.981539
    reduced_to: 13
  - symbol: Al # 31
    coordinates: [  0.166666666666668,  0.833333333333332,  0.518760374562461 ]
    mass: 26.981539
    reduced_to: 13
  - symbol: Al # 32
    coordinates: [  0.666666666666668,  0.833333333333332,  0.518760374562461 ]
    mass: 26.981539
    reduced_to: 13
  - symbol: Al # 33
    coordinates: [  0.333333333333332,  0.166666666666668,  0.685427041229126 ]
    mass: 26.981539
    reduced_to: 1
  - symbol: Al # 34
    coordinates: [  0.833333333333332,  0.166666666666668,  0.685427041229126 ]
    mass: 26.981539
    reduced_to: 1
  - symbol: Al # 35
    coordinates: [  0.333333333333332,  0.666666666666668,  0.685427041229126 ]
    mass: 26.981539
    reduced_to: 1
  - symbol: Al # 36
    coordinates: [  0.833333333333332,  0.666666666666668,  0.685427041229126 ]
    mass: 26.981539
    reduced_to: 1
  - symbol: Al # 37
    coordinates: [  0.333333333333332,  0.166666666666668,  0.981239625437539 ]
    mass: 26.981539
    reduced_to: 5
  - symbol: Al # 38
    coordinates: [  0.833333333333332,  0.166666666666668,  0.981239625437539 ]
    mass: 26.981539
    reduced_to: 5
  - symbol: Al # 39
    coordinates: [  0.333333333333332,  0.666666666666668,  0.981239625437539 ]
    mass: 26.981539
    reduced_to: 5
  - symbol: Al # 40
    coordinates: [  0.833333333333332,  0.666666666666668,  0.981239625437539 ]
    mass: 26.981539
    reduced_to: 5
  - symbol: Al # 41
    coordinates: [  0.166666666666668,  0.333333333333332,  0.814572958770874 ]
    mass: 26.981539
    reduced_to: 9
  - symbol: Al # 42
    coordinates: [  0.666666666666668,  0.333333333333332,  0.814572958770874 ]
    mass: 26.981539
    reduced_to: 9
  - symbol: Al # 43
    coordinates: [  0.166666666666668,  0.833333333333332,  0.814572958770874 ]
    mass: 26.981539
    reduced_to: 9
  - symbol: Al # 44
    coordinates: [  0.666666666666668,  0.833333333333332,  0.814572958770874 ]
    mass: 26.981539
    reduced_to: 9
  - symbol: Al # 45
    coordinates: [  0.000000000000000,  0.000000000000000,  0.852093707895790 ]
    mass: 26.981539
    reduced_to: 13
  - symbol: Al # 46
    coordinates: [  0.500000000000000,  0.000000000000000,  0.852093707895790 ]
    mass: 26.981539
    reduced_to: 13
  - symbol: Al # 47
    coordinates: [  0.000000000000000,  0.500000000000000,  0.852093707895790 ]
    mass: 26.981539
    reduced_to: 13
  - symbol: Al # 48
    coordinates: [  0.500000000000000,  0.500000000000000,  0.852093707895790 ]
    mass: 26.981539
    reduced_to: 13
  - symbol: O  # 49
    coordinates: [  0.152904326894006,  0.000000000000000,  0.250000000000000 ]
    mass: 15.999400
    reduced_to: 49
  - symbol: O  # 50
    coordinates: [  0.652904326894006,  0.000000000000000,  0.250000000000000 ]
    mass: 15.999400
    reduced_to: 49
  - symbol: O  # 51
    coordinates: [  0.152904326894006,  0.500000000000000,  0.250000000000000 ]
    mass: 15.999400
    reduced_to: 49
  - symbol: O  # 52
    coordinates: [  0.652904326894006,  0.500000000000000,  0.250000000000000 ]
    mass: 15.999400
    reduced_to: 49
  - symbol: O  # 53
    coordinates: [  0.180429006439326,  0.166666666666668,  0.083333333333336 ]
    mass: 15.999400
    reduced_to: 53
  - symbol: O  # 54
    coordinates: [  0.680429006439326,  0.166666666666668,  0.083333333333336 ]
    mass: 15.999400
    reduced_to: 53
  - symbol: O  # 55
    coordinates: [  0.180429006439326,  0.666666666666668,  0.083333333333336 ]
    mass: 15.999400
    reduced_to: 53
  - symbol: O  # 56
    coordinates: [  0.680429006439326,  0.666666666666668,  0.083333333333336 ]
    mass: 15.999400
    reduced_to: 53
  - symbol: O  # 57
    coordinates: [  0.000000000000000,  0.152904326894006,  0.250000000000000 ]
    mass: 15.999400
    reduced_to: 57
  - symbol: O  # 58
    coordinates: [  0.500000000000000,  0.152904326894006,  0.250000000000000 ]
    mass: 15.999400
    reduced_to: 57
  - symbol: O  # 59
    coordinates: [  0.000000000000000,  0.652904326894006,  0.250000000000000 ]
    mass: 15.999400
    reduced_to: 57
  - symbol: O  # 60
    coordinates: [  0.500000000000000,  0.652904326894006,  0.250000000000000 ]
    mass: 15.999400
    reduced_to: 57
  - symbol: O  # 61
    coordinates: [  0.333333333333332,  0.013762339772661,  0.083333333333336 ]
    mass: 15.999400
    reduced_to: 61
  - symbol: O  # 62
    coordinates: [  0.833333333333332,  0.013762339772661,  0.083333333333336 ]
    mass: 15.999400
    reduced_to: 61
  - symbol: O  # 63
    coordinates: [  0.333333333333332,  0.513762339772662,  0.083333333333336 ]
    mass: 15.999400
    reduced_to: 61
  - symbol: O  # 64
    coordinates: [  0.833333333333332,  0.513762339772662,  0.083333333333336 ]
    mass: 15.999400
    reduced_to: 61
  - symbol: O  # 65
    coordinates: [  0.347095673105994,  0.347095673105994,  0.250000000000000 ]
    mass: 15.999400
    reduced_to: 65
  - symbol: O  # 66
    coordinates: [  0.847095673105994,  0.347095673105994,  0.250000000000000 ]
    mass: 15.999400
    reduced_to: 65
  - symbol: O  # 67
    coordinates: [  0.347095673105994,  0.847095673105994,  0.250000000000000 ]
    mass: 15.999400
    reduced_to: 65
  - symbol: O  # 68
    coordinates: [  0.847095673105994,  0.847095673105994,  0.250000000000000 ]
    mass: 15.999400
    reduced_to: 65
  - symbol: O  # 69
    coordinates: [  0.486237660227339,  0.319570993560674,  0.083333333333336 ]
    mass: 15.999400
    reduced_to: 69
  - symbol: O  # 70
    coordinates: [  0.986237660227339,  0.319570993560674,  0.083333333333336 ]
    mass: 15.999400
    reduced_to: 69
  - symbol: O  # 71
    coordinates: [  0.486237660227339,  0.819570993560674,  0.083333333333336 ]
    mass: 15.999400
    reduced_to: 69
  - symbol: O  # 72
    coordinates: [  0.986237660227339,  0.819570993560674,  0.083333333333336 ]
    mass: 15.999400
    reduced_to: 69
  - symbol: O  # 73
    coordinates: [  0.486237660227339,  0.166666666666668,  0.583333333333336 ]
    mass: 15.999400
    reduced_to: 49
  - symbol: O  # 74
    coordinates: [  0.986237660227339,  0.166666666666668,  0.583333333333336 ]
    mass: 15.999400
    reduced_to: 49
  - symbol: O  # 75
    coordinates: [  0.486237660227339,  0.666666666666668,  0.583333333333336 ]
    mass: 15.999400
    reduced_to: 49
  - symbol: O  # 76
    coordinates: [  0.986237660227339,  0.666666666666668,  0.583333333333336 ]
    mass: 15.999400
    reduced_to: 49
  - symbol: O  # 77
    coordinates: [  0.013762339772661,  0.333333333333332,  0.416666666666664 ]
    mass: 15.999400
    reduced_to: 53
  - symbol: O  # 78
    coordinates: [  0.513762339772662,  0.333333333333332,  0.416666666666664 ]
    mass: 15.999400
    reduced_to: 53
  - symbol: O  # 79
    coordinates: [  0.013762339772661,  0.833333333333332,  0.416666666666664 ]
    mass: 15.999400
    reduced_to: 53
  - symbol: O  # 80
    coordinates: [  0.513762339772662,  0.833333333333332,  0.416666666666664 ]
    mass: 15.999400
    reduced_to: 53
  - symbol: O  # 81
    coordinates: [  0.333333333333332,  0.319570993560674,  0.583333333333336 ]
    mass: 15.999400
    reduced_to: 57
  - symbol: O  # 82
    coordinates: [  0.833333333333332,  0.319570993560674,  0.583333333333336 ]
    mass: 15.999400
    reduced_to: 57
  - symbol: O  # 83
    coordinates: [  0.333333333333332,  0.819570993560674,  0.583333333333336 ]
    mass: 15.999400
    reduced_to: 57
  - symbol: O  # 84
    coordinates: [  0.833333333333332,  0.819570993560674,  0.583333333333336 ]
    mass: 15.999400
    reduced_to: 57
  - symbol: O  # 85
    coordinates: [  0.166666666666668,  0.180429006439326,  0.416666666666664 ]
    mass: 15.999400
    reduced_to: 61
  - symbol: O  # 86
    coordinates: [  0.666666666666668,  0.180429006439326,  0.416666666666664 ]
    mass: 15.999400
    reduced_to: 61
  - symbol: O  # 87
    coordinates: [  0.166666666666668,  0.680429006439326,  0.416666666666664 ]
    mass: 15.999400
    reduced_to: 61
  - symbol: O  # 88
    coordinates: [  0.666666666666668,  0.680429006439326,  0.416666666666664 ]
    mass: 15.999400
    reduced_to: 61
  - symbol: O  # 89
    coordinates: [  0.180429006439326,  0.013762339772661,  0.583333333333336 ]
    mass: 15.999400
    reduced_to: 65
  - symbol: O  # 90
    coordinates: [  0.680429006439326,  0.013762339772661,  0.583333333333336 ]
    mass: 15.999400
    reduced_to: 65
  - symbol: O  # 91
    coordinates: [  0.180429006439326,  0.513762339772662,  0.583333333333336 ]
    mass: 15.999400
    reduced_to: 65
  - symbol: O  # 92
    coordinates: [  0.680429006439326,  0.513762339772662,  0.583333333333336 ]
    mass: 15.999400
    reduced_to: 65
  - symbol: O  # 93
    coordinates: [  0.319570993560674,  0.486237660227339,  0.416666666666664 ]
    mass: 15.999400
    reduced_to: 69
  - symbol: O  # 94
    coordinates: [  0.819570993560674,  0.486237660227339,  0.416666666666664 ]
    mass: 15.999400
    reduced_to: 69
  - symbol: O  # 95
    coordinates: [  0.319570993560674,  0.986237660227339,  0.416666666666664 ]
    mass: 15.999400
    reduced_to: 69
  - symbol: O  # 96
    coordinates: [  0.819570993560674,  0.986237660227339,  0.416666666666664 ]
    mass: 15.999400
    reduced_to: 69
  - symbol: O  # 97
    coordinates: [  0.319570993560674,  0.333333333333332,  0.916666666666664 ]
    mass: 15.999400
    reduced_to: 49
  - symbol: O  # 98
    coordinates: [  0.819570993560674,  0.333333333333332,  0.916666666666664 ]
    mass: 15.999400
    reduced_to: 49
  - symbol: O  # 99
    coordinates: [  0.319570993560674,  0.833333333333332,  0.916666666666664 ]
    mass: 15.999400
    reduced_to: 49
  - symbol: O  # 100
    coordinates: [  0.819570993560674,  0.833333333333332,  0.916666666666664 ]
    mass: 15.999400
    reduced_to: 49
  - symbol: O  # 101
    coordinates: [  0.347095673105994,  0.000000000000000,  0.750000000000000 ]
    mass: 15.999400
    reduced_to: 53
  - symbol: O  # 102
    coordinates: [  0.847095673105994,  0.000000000000000,  0.750000000000000 ]
    mass: 15.999400
    reduced_to: 53
  - symbol: O  # 103
    coordinates: [  0.347095673105994,  0.500000000000000,  0.750000000000000 ]
    mass: 15.999400
    reduced_to: 53
  - symbol: O  # 104
    coordinates: [  0.847095673105994,  0.500000000000000,  0.750000000000000 ]
    mass: 15.999400
    reduced_to: 53
  - symbol: O  # 105
    coordinates: [  0.166666666666668,  0.486237660227339,  0.916666666666664 ]
    mass: 15.999400
    reduced_to: 57
  - symbol: O  # 106
    coordinates: [  0.666666666666668,  0.486237660227339,  0.916666666666664 ]
    mass: 15.999400
    reduced_to: 57
  - symbol: O  # 107
    coordinates: [  0.166666666666668,  0.986237660227339,  0.916666666666664 ]
    mass: 15.999400
    reduced_to: 57
  - symbol: O  # 108
    coordinates: [  0.666666666666668,  0.986237660227339,  0.916666666666664 ]
    mass: 15.999400
    reduced_to: 57
  - symbol: O  # 109
    coordinates: [  0.000000000000000,  0.347095673105994,  0.750000000000000 ]
    mass: 15.999400
    reduced_to: 61
  - symbol: O  # 110
    coordinates: [  0.500000000000000,  0.347095673105994,  0.750000000000000 ]
    mass: 15.999400
    reduced_to: 61
  - symbol: O  # 111
    coordinates: [  0.000000000000000,  0.847095673105994,  0.750000000000000 ]
    mass: 15.999400
    reduced_to: 61
  - symbol: O  # 112
    coordinates: [  0.500000000000000,  0.847095673105994,  0.750000000000000 ]
    mass: 15.999400
    reduced_to: 61
  - symbol: O  # 113
    coordinates: [  0.013762339772661,  0.180429006439326,  0.916666666666664 ]
    mass: 15.999400
    reduced_to: 65
  - symbol: O  # 114
    coordinates: [  0.513762339772662,  0.180429006439326,  0.916666666666664 ]
    mass: 15.999400
    reduced_to: 65
  - symbol: O  # 115
    coordinates: [  0.013762339772661,  0.680429006439326,  0.916666666666664 ]
    mass: 15.999400
    reduced_to: 65
  - symbol: O  # 116
    coordinates: [  0.513762339772662,  0.680429006439326,  0.916666666666664 ]
    mass: 15.999400
    reduced_to: 65
  - symbol: O  # 117
    coordinates: [  0.152904326894006,  0.152904326894006,  0.750000000000000 ]
    mass: 15.999400
    reduced_to: 69
  - symbol: O  # 118
    coordinates: [  0.652904326894006,  0.152904326894006,  0.750000000000000 ]
    mass: 15.999400
    reduced_to: 69
  - symbol: O  # 119
    coordinates: [  0.152904326894006,  0.652904326894006,  0.750000000000000 ]
    mass: 15.999400
    reduced_to: 69
  - symbol: O  # 120
    coordinates: [  0.652904326894006,  0.652904326894006,  0.750000000000000 ]
    mass: 15.999400
    reduced_to: 69

nac:
  born_effective_charge:
  - # 1 (Al)
    - [  2.960088130000000, -0.029486620000000,  0.000000000000000 ]
    - [  0.029486620000000,  2.960088130000000, -0.000000000000000 ]
    - [  0.000000000000000, -0.000000000000000,  2.926141830000000 ]
  - # 2 (Al)
    - [  2.960088130000000, -0.029486620000000,  0.000000000000000 ]
    - [  0.029486620000000,  2.960088130000000, -0.000000000000000 ]
    - [  0.000000000000000, -0.000000000000000,  2.926141830000000 ]
  - # 3 (Al)
    - [  2.960088130000000,  0.029486620000000,  0.000000000000000 ]
    - [ -0.029486620000000,  2.960088129999999,  0.000000000000000 ]
    - [  0.000000000000000,  0.000000000000000,  2.926141830000000 ]
  - # 4 (Al)
    - [  2.960088130000000,  0.029486620000000,  0.000000000000000 ]
    - [ -0.029486620000000,  2.960088129999999,  0.000000000000000 ]
    - [  0.000000000000000,  0.000000000000000,  2.926141830000000 ]
  - # 5 (O)
    - [ -2.073281190000000,  0.000000000000000,  0.000000000000000 ]
    - [ -0.000000000000000, -1.873502980000000,  0.258117700000000 ]
    - [  0.000000000000000,  0.350871300000000, -1.950761220000000 ]
  - # 6 (O)
    - [ -2.073281190000000,  0.000000000000000,  0.000000000000000 ]
    - [ -0.000000000000000, -1.873502980000000,  0.258117700000000 ]
    - [  0.000000000000000,  0.350871300000000, -1.950761220000000 ]
  - # 7 (O)
    - [ -1.923447532500000,  0.086506502491291, -0.223536485366410 ]
    - [  0.086506502491291, -2.023336637500000, -0.129058850000000 ]
    - [ -0.303863459258871, -0.175435650000000, -1.950761220000000 ]
  - # 8 (O)
    - [ -1.923447532500000,  0.086506502491291, -0.223536485366410 ]
    - [  0.086506502491291, -2.023336637500000, -0.129058850000000 ]
    - [ -0.303863459258871, -0.175435650000000, -1.950761220000000 ]
  - # 9 (O)
    - [ -1.923447532500000, -0.086506502491291,  0.223536485366410 ]
    - [ -0.086506502491291, -2.023336637500000, -0.129058850000000 ]
    - [  0.303863459258871, -0.175435650000000, -1.950761220000000 ]
  - # 10 (O)
    - [ -1.923447532500000, -0.086506502491291,  0.223536485366410 ]
    - [ -0.086506502491291, -2.023336637500000, -0.129058850000000 ]
    - [  0.303863459258871, -0.175435650000000, -1.950761220000000 ]
  dielectric_constant:
    - [  3.276496240000000, -0.000000000000000,  0.000000000000000 ]
    - [ -0.000000000000000,  3.276496240000000,  0.000000000000000 ]
    - [  0.000000000000000,  0.000000000000000,  3.218788660000000 ]
  unit_conversion_factor: 14.399652

displacements:
- atom:    1
  displacement:
    [   0.0059163718384140,  0.0000000000000000,  0.0080620434301498 ]
- atom:    1
  displacement:
    [  -0.0059163718384140,  0.0000000000000000, -0.0080620434301498 ]
- atom:   49
  displacement:
    [  -0.0050000000000000,  0.0086602540378444,  0.0000000000000000 ]
- atom:   49
  displacement:
    [   0.0050000000000000, -0.0086602540378444,  0.0000000000000000 ]
- atom:   49
  displacement:
    [   0.0000000000000000,  0.0000000000000000,  0.0100000000000000 ]
