phonopy:
  version: 2.8.1
  calculator: fleur
  frequency_unit_conversion_factor: 15.633302
  symmetry_tolerance: 1.00000e-05
  configuration:
    cell_filename: "fleur_inpgen"
    create_displacements: ".true."
    dim: "2 2 2"
    calculator: "fleur"

physical_unit:
  atomic_mass: "AMU"
  length: "au"
  force_constants: "hartree/au^2"

space_group:
  type: "Fm-3m"
  number: 225
  Hall_symbol: "-F 4 2 3"

supercell_matrix:
- [   2,   0,   0 ]
- [   0,   2,   0 ]
- [   0,   0,   2 ]

primitive_cell:
  lattice:
  - [     7.656000000000000,     0.000000000000000,     0.000000000000000 ] # a
  - [     0.000000000000000,     7.656000000000000,     0.000000000000000 ] # b
  - [     0.000000000000000,     0.000000000000000,     7.656000000000000 ] # c
  points:
  - symbol: Al # 1
    coordinates: [  0.000000000000000,  0.000000000000000,  0.000000000000000 ]
    mass: 26.981539
  - symbol: Al # 2
    coordinates: [  0.000000000000000,  0.500000000000000,  0.500000000000000 ]
    mass: 26.981539
  - symbol: Al # 3
    coordinates: [  0.500000000000000,  0.000000000000000,  0.500000000000000 ]
    mass: 26.981539
  - symbol: Al # 4
    coordinates: [  0.500000000000000,  0.500000000000000,  0.000000000000000 ]
    mass: 26.981539
  reciprocal_lattice: # without 2pi
  - [     0.130616509926855,     0.000000000000000,     0.000000000000000 ] # a*
  - [     0.000000000000000,     0.130616509926855,     0.000000000000000 ] # b*
  - [     0.000000000000000,     0.000000000000000,     0.130616509926855 ] # c*

unit_cell:
  lattice:
  - [     7.656000000000000,     0.000000000000000,     0.000000000000000 ] # a
  - [     0.000000000000000,     7.656000000000000,     0.000000000000000 ] # b
  - [     0.000000000000000,     0.000000000000000,     7.656000000000000 ] # c
  points:
  - symbol: Al # 1
    coordinates: [  0.000000000000000,  0.000000000000000,  0.000000000000000 ]
    mass: 26.981539
    reduced_to: 1
  - symbol: Al # 2
    coordinates: [  0.000000000000000,  0.500000000000000,  0.500000000000000 ]
    mass: 26.981539
    reduced_to: 2
  - symbol: Al # 3
    coordinates: [  0.500000000000000,  0.000000000000000,  0.500000000000000 ]
    mass: 26.981539
    reduced_to: 3
  - symbol: Al # 4
    coordinates: [  0.500000000000000,  0.500000000000000,  0.000000000000000 ]
    mass: 26.981539
    reduced_to: 4

supercell:
  lattice:
  - [    15.311999999999999,     0.000000000000000,     0.000000000000000 ] # a
  - [     0.000000000000000,    15.311999999999999,     0.000000000000000 ] # b
  - [     0.000000000000000,     0.000000000000000,    15.311999999999999 ] # c
  points:
  - symbol: Al # 1
    coordinates: [  0.000000000000000,  0.000000000000000,  0.000000000000000 ]
    mass: 26.981539
    reduced_to: 1
  - symbol: Al # 2
    coordinates: [  0.500000000000000,  0.000000000000000,  0.000000000000000 ]
    mass: 26.981539
    reduced_to: 1
  - symbol: Al # 3
    coordinates: [  0.000000000000000,  0.500000000000000,  0.000000000000000 ]
    mass: 26.981539
    reduced_to: 1
  - symbol: Al # 4
    coordinates: [  0.500000000000000,  0.500000000000000,  0.000000000000000 ]
    mass: 26.981539
    reduced_to: 1
  - symbol: Al # 5
    coordinates: [  0.000000000000000,  0.000000000000000,  0.500000000000000 ]
    mass: 26.981539
    reduced_to: 1
  - symbol: Al # 6
    coordinates: [  0.500000000000000,  0.000000000000000,  0.500000000000000 ]
    mass: 26.981539
    reduced_to: 1
  - symbol: Al # 7
    coordinates: [  0.000000000000000,  0.500000000000000,  0.500000000000000 ]
    mass: 26.981539
    reduced_to: 1
  - symbol: Al # 8
    coordinates: [  0.500000000000000,  0.500000000000000,  0.500000000000000 ]
    mass: 26.981539
    reduced_to: 1
  - symbol: Al # 9
    coordinates: [  0.000000000000000,  0.250000000000000,  0.250000000000000 ]
    mass: 26.981539
    reduced_to: 9
  - symbol: Al # 10
    coordinates: [  0.500000000000000,  0.250000000000000,  0.250000000000000 ]
    mass: 26.981539
    reduced_to: 9
  - symbol: Al # 11
    coordinates: [  0.000000000000000,  0.750000000000000,  0.250000000000000 ]
    mass: 26.981539
    reduced_to: 9
  - symbol: Al # 12
    coordinates: [  0.500000000000000,  0.750000000000000,  0.250000000000000 ]
    mass: 26.981539
    reduced_to: 9
  - symbol: Al # 13
    coordinates: [  0.000000000000000,  0.250000000000000,  0.750000000000000 ]
    mass: 26.981539
    reduced_to: 9
  - symbol: Al # 14
    coordinates: [  0.500000000000000,  0.250000000000000,  0.750000000000000 ]
    mass: 26.981539
    reduced_to: 9
  - symbol: Al # 15
    coordinates: [  0.000000000000000,  0.750000000000000,  0.750000000000000 ]
    mass: 26.981539
    reduced_to: 9
  - symbol: Al # 16
    coordinates: [  0.500000000000000,  0.750000000000000,  0.750000000000000 ]
    mass: 26.981539
    reduced_to: 9
  - symbol: Al # 17
    coordinates: [  0.250000000000000,  0.000000000000000,  0.250000000000000 ]
    mass: 26.981539
    reduced_to: 17
  - symbol: Al # 18
    coordinates: [  0.750000000000000,  0.000000000000000,  0.250000000000000 ]
    mass: 26.981539
    reduced_to: 17
  - symbol: Al # 19
    coordinates: [  0.250000000000000,  0.500000000000000,  0.250000000000000 ]
    mass: 26.981539
    reduced_to: 17
  - symbol: Al # 20
    coordinates: [  0.750000000000000,  0.500000000000000,  0.250000000000000 ]
    mass: 26.981539
    reduced_to: 17
  - symbol: Al # 21
    coordinates: [  0.250000000000000,  0.000000000000000,  0.750000000000000 ]
    mass: 26.981539
    reduced_to: 17
  - symbol: Al # 22
    coordinates: [  0.750000000000000,  0.000000000000000,  0.750000000000000 ]
    mass: 26.981539
    reduced_to: 17
  - symbol: Al # 23
    coordinates: [  0.250000000000000,  0.500000000000000,  0.750000000000000 ]
    mass: 26.981539
    reduced_to: 17
  - symbol: Al # 24
    coordinates: [  0.750000000000000,  0.500000000000000,  0.750000000000000 ]
    mass: 26.981539
    reduced_to: 17
  - symbol: Al # 25
    coordinates: [  0.250000000000000,  0.250000000000000,  0.000000000000000 ]
    mass: 26.981539
    reduced_to: 25
  - symbol: Al # 26
    coordinates: [  0.750000000000000,  0.250000000000000,  0.000000000000000 ]
    mass: 26.981539
    reduced_to: 25
  - symbol: Al # 27
    coordinates: [  0.250000000000000,  0.750000000000000,  0.000000000000000 ]
    mass: 26.981539
    reduced_to: 25
  - symbol: Al # 28
    coordinates: [  0.750000000000000,  0.750000000000000,  0.000000000000000 ]
    mass: 26.981539
    reduced_to: 25
  - symbol: Al # 29
    coordinates: [  0.250000000000000,  0.250000000000000,  0.500000000000000 ]
    mass: 26.981539
    reduced_to: 25
  - symbol: Al # 30
    coordinates: [  0.750000000000000,  0.250000000000000,  0.500000000000000 ]
    mass: 26.981539
    reduced_to: 25
  - symbol: Al # 31
    coordinates: [  0.250000000000000,  0.750000000000000,  0.500000000000000 ]
    mass: 26.981539
    reduced_to: 25
  - symbol: Al # 32
    coordinates: [  0.750000000000000,  0.750000000000000,  0.500000000000000 ]
    mass: 26.981539
    reduced_to: 25

displacements:
- atom:    1
  displacement:
    [   0.0200000000000000,  0.0000000000000000,  0.0000000000000000 ]
