phonopy:
  version: 2.8.1
  calculator: fleur
  frequency_unit_conversion_factor: 15.633302
  symmetry_tolerance: 1.00000e-05
  configuration:
    cell_filename: "fleur_inpgen"
    create_displacements: ".true."
    dim: "2 2 2"
    calculator: "fleur"

physical_unit:
  atomic_mass: "AMU"
  length: "au"
  force_constants: "hartree/au^2"

space_group:
  type: "Fm-3m"
  number: 225
  Hall_symbol: "-F 4 2 3"

supercell_matrix:
- [   2,   0,   0 ]
- [   0,   2,   0 ]
- [   0,   0,   2 ]

primitive_cell:
  lattice:
  - [     0.000000000000000,     3.828000000000000,     3.828000000000000 ] # a
  - [     3.828000000000000,     0.000000000000000,     3.828000000000000 ] # b
  - [     3.828000000000000,     3.828000000000000,     0.000000000000000 ] # c
  points:
  - symbol: Al # 1
    coordinates: [  0.000000000000000,  0.000000000000000,  0.000000000000000 ]
    mass: 26.981539
  reciprocal_lattice: # without 2pi
  - [    -0.130616509926855,     0.130616509926855,     0.130616509926855 ] # a*
  - [     0.130616509926855,    -0.130616509926855,     0.130616509926855 ] # b*
  - [     0.130616509926855,     0.130616509926855,    -0.130616509926855 ] # c*

unit_cell:
  lattice:
  - [     0.000000000000000,     3.828000000000000,     3.828000000000000 ] # a
  - [     3.828000000000000,     0.000000000000000,     3.828000000000000 ] # b
  - [     3.828000000000000,     3.828000000000000,     0.000000000000000 ] # c
  points:
  - symbol: Al # 1
    coordinates: [  0.000000000000000,  0.000000000000000,  0.000000000000000 ]
    mass: 26.981539
    reduced_to: 1

supercell:
  lattice:
  - [     0.000000000000000,     7.656000000000000,     7.656000000000000 ] # a
  - [     7.656000000000000,     0.000000000000000,     7.656000000000000 ] # b
  - [     7.656000000000000,     7.656000000000000,     0.000000000000000 ] # c
  points:
  - symbol: Al # 1
    coordinates: [  0.000000000000000,  0.000000000000000,  0.000000000000000 ]
    mass: 26.981539
    reduced_to: 1
  - symbol: Al # 2
    coordinates: [  0.500000000000000,  0.000000000000000,  0.000000000000000 ]
    mass: 26.981539
    reduced_to: 1
  - symbol: Al # 3
    coordinates: [  0.000000000000000,  0.500000000000000,  0.000000000000000 ]
    mass: 26.981539
    reduced_to: 1
  - symbol: Al # 4
    coordinates: [  0.500000000000000,  0.500000000000000,  0.000000000000000 ]
    mass: 26.981539
    reduced_to: 1
  - symbol: Al # 5
    coordinates: [  0.000000000000000,  0.000000000000000,  0.500000000000000 ]
    mass: 26.981539
    reduced_to: 1
  - symbol: Al # 6
    coordinates: [  0.500000000000000,  0.000000000000000,  0.500000000000000 ]
    mass: 26.981539
    reduced_to: 1
  - symbol: Al # 7
    coordinates: [  0.000000000000000,  0.500000000000000,  0.500000000000000 ]
    mass: 26.981539
    reduced_to: 1
  - symbol: Al # 8
    coordinates: [  0.500000000000000,  0.500000000000000,  0.500000000000000 ]
    mass: 26.981539
    reduced_to: 1

displacements:
- atom:    1
  displacement:
    [   0.0000000000000000,  0.0141421356237310,  0.0141421356237310 ]
