# geometry.in for FHI-aims 
# | generated by phonopy.FHIaims.write_aims() 
lattice_vector 0.0000000000000000 2.8494999999999999 2.8494999999999999 
lattice_vector 2.8494999999999999 0.0000000000000000 2.8494999999999999 
lattice_vector 2.8494999999999999 2.8494999999999999 0.0000000000000000 
atom 2.8493444421207630 2.8498000353410919 0.0083856720641422 Na 
atom 2.8496007859725161 2.8493056070589957 2.8440669218535710 Cl 
