# geometry.in for FHI-aims 
# | generated by phonopy.FHIaims.write_aims() 
lattice_vector 0.0000000000000000 2.8494999999999999 2.8494999999999999 
lattice_vector 2.8494999999999999 0.0000000000000000 2.8494999999999999 
lattice_vector 2.8494999999999999 2.8494999999999999 0.0000000000000000 
atom 2.8468838294960017 5.6924407825821435 2.8497988524948727 Na 
atom 2.8468815783097137 2.8429351384468351 2.8497991096541968 Cl 
