# geometry.in for FHI-aims 
# | generated by phonopy.FHIaims.write_aims() 
lattice_vector 0.0000000000000000 2.8494999999999999 2.8494999999999999 
lattice_vector 2.8494999999999999 0.0000000000000000 2.8494999999999999 
lattice_vector 2.8494999999999999 2.8494999999999999 0.0000000000000000 
atom 0.0065659315846086 2.8468848877798294 2.8495820033934867 Na 
atom 2.8560715814973845 2.8468826375041827 2.8495820739565163 Cl 
