# geometry.in for FHI-aims 
# | generated by phonopy.FHIaims.write_aims() 
lattice_vector 0.0000000000000000 2.8494999999999999 2.8494999999999999 
lattice_vector 2.8494999999999999 0.0000000000000000 2.8494999999999999 
lattice_vector 2.8494999999999999 2.8494999999999999 0.0000000000000000 
atom 2.8495344728101379 2.8498079756412382 0.0070612291199304 Na 
atom 2.8495345024736158 2.8498082406509306 2.8565673052308527 Cl 
