# geometry.in for FHI-aims 
# | generated by phonopy.FHIaims.write_aims() 
lattice_vector 0.0000000000000000 2.8494999999999999 2.8494999999999999 
lattice_vector 2.8494999999999999 0.0000000000000000 2.8494999999999999 
lattice_vector 2.8494999999999999 2.8494999999999999 0.0000000000000000 
atom 2.8487094723239523 5.6906496667713027 2.8497841063007852 Na 
atom 2.8500121829959522 2.8549101821098191 2.8493159274865207 Cl 
