# geometry.in for FHI-aims 
# | generated by phonopy.FHIaims.write_aims() 
lattice_vector 0.0000000000000000 2.8494999999999999 2.8494999999999999 
lattice_vector 2.8494999999999999 0.0000000000000000 2.8494999999999999 
lattice_vector 2.8494999999999999 2.8494999999999999 0.0000000000000000 
atom 0.0083537167276992 2.8487153795880555 2.8496830384373597 Na 
atom 2.8440876257206869 2.8500083556786819 2.8493814093698906 Cl 
