16
1

1
  0.0100000000000000   0.0000000000000000   0.0000000000000000
  -0.0530093750    0.0000000000   -0.0000000000
   0.0043906250    0.0000000000    0.0000000000
  -0.0101093750    0.0000000000   -0.0000000000
   0.0066106250    0.0000000000   -0.0000000000
  -0.0101093750   -0.0000000000   -0.0000000000
   0.0066106250    0.0000000000   -0.0000000000
  -0.0057793750    0.0000000000   -0.0000000000
   0.0121106250    0.0000000000   -0.0000000000
   0.0065006250    0.0052900000    0.0052900000
   0.0058206250   -0.0058900000   -0.0058900000
   0.0065006250   -0.0052900000    0.0052900000
   0.0058206250    0.0058900000   -0.0058900000
   0.0065006250    0.0052900000   -0.0052900000
   0.0058206250   -0.0058900000    0.0058900000
   0.0065006250   -0.0052900000   -0.0052900000
   0.0058206250    0.0058900000    0.0058900000
