natom:   16
lattice:
- [    0.0000000000,   5.4661988438,   5.4661988438 ]
- [    5.4661988438,   0.0000000000,   5.4661988438 ]
- [    5.4661988438,   5.4661988438,   0.0000000000 ]
displacements:
- atom:    1
  displacement:
    [   0.0000000000000000,  0.0070710678118655,  0.0070710678118655 ]
