  MPI-parallelism will be employed.
------------------------------------------------------------
          Invoking FHI-aims ...
          Version workshop
          Compiled on 2009/06/20 at 17:37:41

          When using FHI-aims, please cite the following reference:

          Volker Blum, Ralf Gehrke, Felix Hanke, Paula Havu,
          Ville Havu, Xinguo Ren, Karsten Reuter, and Matthias Scheffler,
          'Ab Initio Molecular Simulations with Numeric Atom-Centered Orbitals: FHI-aims',
          Computer Physics Communications [volume], [page] (2008).

------------------------------------------------------------

  Date     :  20091202, Time     :  234602.720
  Time zero on CPU 1             :   0.300000000000000E-01  s.
  Internal wall clock time zero  :            29029562.720  s.

  Using       16 parallel tasks.
  Task        0 on host thp510 reporting.
  Obtaining array dimensions for all initial allocations:
  Parsing control.in ...
  MPI-parallelism will be employed.
  Task        1 on host thp510 reporting.
  MPI-parallelism will be employed.
  Task        2 on host thp510 reporting.
  MPI-parallelism will be employed.
  Task        3 on host thp510 reporting.
  MPI-parallelism will be employed.
  Task        4 on host thp510 reporting.
  MPI-parallelism will be employed.
  Task        5 on host thp510 reporting.
  MPI-parallelism will be employed.
  Task        6 on host thp510 reporting.
  MPI-parallelism will be employed.
  Task        7 on host thp510 reporting.
  MPI-parallelism will be employed.
  Task        8 on host thp510 reporting.
  MPI-parallelism will be employed.
  Task        9 on host thp510 reporting.
  MPI-parallelism will be employed.
  Task       10 on host thp510 reporting.
  MPI-parallelism will be employed.
  Task       11 on host thp510 reporting.
  MPI-parallelism will be employed.
  Task       12 on host thp510 reporting.
  MPI-parallelism will be employed.
  Task       13 on host thp510 reporting.
  MPI-parallelism will be employed.
  Task       14 on host thp510 reporting.
  MPI-parallelism will be employed.
  Task       15 on host thp510 reporting.
  Parsing geometry.in ...
 
  Basic array size parameters: 
  | Number of species                 :        2
  | Number of atoms                   :      128
  | Number of lattice vectors         :        3
  | Max. basis fn. angular momentum   :        4
  | Max. atomic/ionic basis occupied n:        3
  | Max. number of basis fn. types    :        3
  | Max. radial fns per species/type  :        5
  | Max. logarithmic grid size        :     1362
  | Max. radial integration grid size :       91
  | Max. angular integration grid size:      590
  | Max. angular grid division number :        8
  | Radial grid for Hartree potential :     1362
  | Number of spin channels           :        1

------------------------------------------------------------
          Reading file control.in.
------------------------------------------------------------
  XC: Using PBE gradient-corrected functionals.
  Spin treatment: No spin polarisation.
  Scalar relativistic treatment of kinetic energy: on-site free-atom approximation to ZORA.
  Charge =   0.000000E+00: Neutral system requested explicitly.
  Found k-point grid:         1         1         1
  Occupation type: Gaussian broadening, width =   0.100000E-01 eV.
  Using pulay charge density mixing.
  Pulay mixing - number of memorized iterations:   10
  Convergence accuracy of self-consistent charge density: 0.1000E-04
  Convergence accuracy of sum of eigenvalues: 0.1000E-01
  Convergence accuracy of total energy: 0.1000E-05
  Convergence accuracy of forces: 0.1000E-03
  Maximum number of s.-c. iterations  :   100
  Kohn-Sham eigenvalues and eigenfunctions calculated by modified ScaLAPACK (scalapack_fast).
  Number of empty states per atom:   3
  Threshold for basis singularities: 0.1000E-03
 
  Reading configuration options for species Na                  .
  | Found nuclear charge :  11
  | Found atomic mass :  22.9897692800000009 amu
  | Found l_max for Hartree potential  :   4
  | Found cutoff potl. onset [A], width [A], scale factor :    4.00000    2.00000    1.00000
  | Threshold for basis-dependent cutoff potential is   0.100000E-03
  | Found data for basic radial integration grid :    40 points, outermost radius =    7.000 A
  | Found multiplier for basic radial grid :   2
  | Found angular grid specification: user-specified.
  | Specified grid contains     6 separate shells.
  | Check grid settings after all constraints further below.
  | Found free-atom valence shell :  3 s   1.000
  | Found free-atom valence shell :  2 p   6.000
  | Found free-ion valence shell :  2 s   2.000
  | Found free-ion valence shell :  2 p   6.000
  | Found hydrogenic basis function :  2 p   1.200
  | Found hydrogenic basis function :  3 s   1.800
  | Found hydrogenic basis function :  3 d   3.800
  Species Na                  : Missing cutoff potential type.
  Defaulting to exp(1/x)/(1-x)^2 type cutoff potential.
  Species Na: No 'logarithmic' tag. Using default grid for free atom:
  | Default logarithmic grid data [bohr] : 0.1000E-03 0.1000E+03 0.1012E+01
  Species Na: On-site basis accuracy parameter (for Gram-Schmidt orthonormalisation) not specified.
  Using default value basis_acc =  0.1000000E-03.
  Species Na                  : Using default innermost maximum threshold i_radial=  2 for radial functions.
  Species Na                  : Default cutoff onset for free atom density etc. : 0.40000000E+01 AA.
  Species Na                  : Basic radial grid will be enhanced according to radial_multiplier =   2, to contain    81 grid points.
 
  Reading configuration options for species Cl                  .
  | Found nuclear charge :  17
  | Found atomic mass :  35.4530000000000030 amu
  | Found l_max for Hartree potential  :   4
  | Found cutoff potl. onset [A], width [A], scale factor :    4.00000    2.00000    1.00000
  | Threshold for basis-dependent cutoff potential is   0.100000E-03
  | Found data for basic radial integration grid :    45 points, outermost radius =    7.000 A
  | Found multiplier for basic radial grid :   2
  | Found angular grid specification: user-specified.
  | Specified grid contains     6 separate shells.
  | Check grid settings after all constraints further below.
  | Found free-atom valence shell :  3 s   2.000
  | Found free-atom valence shell :  3 p   5.000
  | Found free-ion valence shell :  3 s   1.000
  | Found free-ion valence shell :  3 p   4.000
  | Found ionic basis function :  3 d , default cutoff radius.
  | Found hydrogenic basis function :  2 p   1.900
  | Found hydrogenic basis function :  4 f   7.400
  | Found ionic basis function :  3 s , default cutoff radius.
  | Found hydrogenic basis function :  5 g  10.400
  Species Cl                  : Missing cutoff potential type.
  Defaulting to exp(1/x)/(1-x)^2 type cutoff potential.
  Species Cl: No 'logarithmic' tag. Using default grid for free atom:
  | Default logarithmic grid data [bohr] : 0.1000E-03 0.1000E+03 0.1012E+01
  | Will include ionic basis functions of  2.0-fold positive Cl                   ion.
  Species Cl: On-site basis accuracy parameter (for Gram-Schmidt orthonormalisation) not specified.
  Using default value basis_acc =  0.1000000E-03.
  Species Cl                  : Using default innermost maximum threshold i_radial=  2 for radial functions.
  Species Cl                  : Default cutoff onset for free atom density etc. : 0.40000000E+01 AA.
  Species Cl                  : Basic radial grid will be enhanced according to radial_multiplier =   2, to contain    91 grid points.
 
  Input file control.in ends. 
  Target number of points in a grid batch is not set. Defaulting to  100
  Method for grid partitioning is not set. Defaulting to parallel hash+maxmin partitioning.
  Batch size limit is not set. Defaulting to    200
  By default, will store active basis functions for each batch.
  If in need of memory, prune_basis_once .false. can be used to disable this option.
  Pulay mixer: Number of initial linear mixing iterations not set.
  Defaulting to    0 iterations.
  Work space size for distributed Hartree potential not set.
  Defaulting to   0.200000E+03 MB.
  Mixing parameter for charge density mixing has not been set.
  Using default: charge_mix_param =     0.6000.
  Algorithm-dependent basis array size parameters:
  | n_max_pulay                         :       10
  Geometry relaxation not requested: no relaxation will be performed.
  Handling of forces: Unphysical translation and rotation will be removed from forces.
  No accuracy limit for integral partition fn. given. Defaulting to 0.1000E-14.
  No threshold value for u(r) in integrations given. Defaulting to 0.1000E-05.
  No accuracy for occupation numbers given. Defaulting to 0.1000E-07.
  No threshold value for occupation numbers given. Defaulting to 0.0000E+00.
  No accuracy for fermi level given. Defaulting to 0.1000E-19.
  Maximum # of iterations to find E_F not set. Defaulting to  200.
  Partitioning for integrals was not defined. Using the partition function of Stratmann and coworkers.
  Partitioning for Hartree potential was not defined. Using partition_type for integrals.
  No q(lm)/r^(l+1) cutoff set for long-range Hartree potential.
  | Using default value of  0.100000E-09 .
  | Verify using the multipole_threshold keyword.
  Using density matrix based charge density update.
  Using packed matrix style: index .
------------------------------------------------------------


------------------------------------------------------------
          Reading geometry description geometry.in.
------------------------------------------------------------
  Input structure read successfully. 
  The structure contains  128 atoms,  and a total of   1792.000 electrons.
 
  Input geometry:
  | Unit cell: 
  |         0.000000        11.398000        11.398000
  |        11.398000         0.000000        11.398000
  |        11.398000        11.398000         0.000000
  | Atomic structure: 
  |       Atom                x [A]            y [A]            z [A]
  |    1: Species Na         0.000000         0.007071         0.007071
  |    2: Species Na         0.000000         2.849500         2.849500
  |    3: Species Na         0.000000         5.699000         5.699000
  |    4: Species Na         0.000000         8.548500         8.548500
  |    5: Species Na         2.849500         0.000000         2.849500
  |    6: Species Na         2.849500         2.849500         5.699000
  |    7: Species Na         2.849500         5.699000         8.548500
  |    8: Species Na         2.849500         8.548500        11.398000
  |    9: Species Na         5.699000         0.000000         5.699000
  |   10: Species Na         5.699000         2.849500         8.548500
  |   11: Species Na         5.699000         5.699000        11.398000
  |   12: Species Na         5.699000         8.548500        14.247500
  |   13: Species Na         8.548500         0.000000         8.548500
  |   14: Species Na         8.548500         2.849500        11.398000
  |   15: Species Na         8.548500         5.699000        14.247500
  |   16: Species Na         8.548500         8.548500        17.097000
  |   17: Species Na         2.849500         2.849500         0.000000
  |   18: Species Na         2.849500         5.699000         2.849500
  |   19: Species Na         2.849500         8.548500         5.699000
  |   20: Species Na         2.849500        11.398000         8.548500
  |   21: Species Na         5.699000         2.849500         2.849500
  |   22: Species Na         5.699000         5.699000         5.699000
  |   23: Species Na         5.699000         8.548500         8.548500
  |   24: Species Na         5.699000        11.398000        11.398000
  |   25: Species Na         8.548500         2.849500         5.699000
  |   26: Species Na         8.548500         5.699000         8.548500
  |   27: Species Na         8.548500         8.548500        11.398000
  |   28: Species Na         8.548500        11.398000        14.247500
  |   29: Species Na        11.398000         2.849500         8.548500
  |   30: Species Na        11.398000         5.699000        11.398000
  |   31: Species Na        11.398000         8.548500        14.247500
  |   32: Species Na        11.398000        11.398000        17.097000
  |   33: Species Na         5.699000         5.699000         0.000000
  |   34: Species Na         5.699000         8.548500         2.849500
  |   35: Species Na         5.699000        11.398000         5.699000
  |   36: Species Na         5.699000        14.247500         8.548500
  |   37: Species Na         8.548500         5.699000         2.849500
  |   38: Species Na         8.548500         8.548500         5.699000
  |   39: Species Na         8.548500        11.398000         8.548500
  |   40: Species Na         8.548500        14.247500        11.398000
  |   41: Species Na        11.398000         5.699000         5.699000
  |   42: Species Na        11.398000         8.548500         8.548500
  |   43: Species Na        11.398000        11.398000        11.398000
  |   44: Species Na        11.398000        14.247500        14.247500
  |   45: Species Na        14.247500         5.699000         8.548500
  |   46: Species Na        14.247500         8.548500        11.398000
  |   47: Species Na        14.247500        11.398000        14.247500
  |   48: Species Na        14.247500        14.247500        17.097000
  |   49: Species Na         8.548500         8.548500         0.000000
  |   50: Species Na         8.548500        11.398000         2.849500
  |   51: Species Na         8.548500        14.247500         5.699000
  |   52: Species Na         8.548500        17.097000         8.548500
  |   53: Species Na        11.398000         8.548500         2.849500
  |   54: Species Na        11.398000        11.398000         5.699000
  |   55: Species Na        11.398000        14.247500         8.548500
  |   56: Species Na        11.398000        17.097000        11.398000
  |   57: Species Na        14.247500         8.548500         5.699000
  |   58: Species Na        14.247500        11.398000         8.548500
  |   59: Species Na        14.247500        14.247500        11.398000
  |   60: Species Na        14.247500        17.097000        14.247500
  |   61: Species Na        17.097000         8.548500         8.548500
  |   62: Species Na        17.097000        11.398000        11.398000
  |   63: Species Na        17.097000        14.247500        14.247500
  |   64: Species Na        17.097000        17.097000        17.097000
  |   65: Species Cl         2.849500         2.849500         2.849500
  |   66: Species Cl         2.849500         5.699000         5.699000
  |   67: Species Cl         2.849500         8.548500         8.548500
  |   68: Species Cl         2.849500        11.398000        11.398000
  |   69: Species Cl         5.699000         2.849500         5.699000
  |   70: Species Cl         5.699000         5.699000         8.548500
  |   71: Species Cl         5.699000         8.548500        11.398000
  |   72: Species Cl         5.699000        11.398000        14.247500
  |   73: Species Cl         8.548500         2.849500         8.548500
  |   74: Species Cl         8.548500         5.699000        11.398000
  |   75: Species Cl         8.548500         8.548500        14.247500
  |   76: Species Cl         8.548500        11.398000        17.097000
  |   77: Species Cl        11.398000         2.849500        11.398000
  |   78: Species Cl        11.398000         5.699000        14.247500
  |   79: Species Cl        11.398000         8.548500        17.097000
  |   80: Species Cl        11.398000        11.398000        19.946500
  |   81: Species Cl         5.699000         5.699000         2.849500
  |   82: Species Cl         5.699000         8.548500         5.699000
  |   83: Species Cl         5.699000        11.398000         8.548500
  |   84: Species Cl         5.699000        14.247500        11.398000
  |   85: Species Cl         8.548500         5.699000         5.699000
  |   86: Species Cl         8.548500         8.548500         8.548500
  |   87: Species Cl         8.548500        11.398000        11.398000
  |   88: Species Cl         8.548500        14.247500        14.247500
  |   89: Species Cl        11.398000         5.699000         8.548500
  |   90: Species Cl        11.398000         8.548500        11.398000
  |   91: Species Cl        11.398000        11.398000        14.247500
  |   92: Species Cl        11.398000        14.247500        17.097000
  |   93: Species Cl        14.247500         5.699000        11.398000
  |   94: Species Cl        14.247500         8.548500        14.247500
  |   95: Species Cl        14.247500        11.398000        17.097000
  |   96: Species Cl        14.247500        14.247500        19.946500
  |   97: Species Cl         8.548500         8.548500         2.849500
  |   98: Species Cl         8.548500        11.398000         5.699000
  |   99: Species Cl         8.548500        14.247500         8.548500
  |  100: Species Cl         8.548500        17.097000        11.398000
  |  101: Species Cl        11.398000         8.548500         5.699000
  |  102: Species Cl        11.398000        11.398000         8.548500
  |  103: Species Cl        11.398000        14.247500        11.398000
  |  104: Species Cl        11.398000        17.097000        14.247500
  |  105: Species Cl        14.247500         8.548500         8.548500
  |  106: Species Cl        14.247500        11.398000        11.398000
  |  107: Species Cl        14.247500        14.247500        14.247500
  |  108: Species Cl        14.247500        17.097000        17.097000
  |  109: Species Cl        17.097000         8.548500        11.398000
  |  110: Species Cl        17.097000        11.398000        14.247500
  |  111: Species Cl        17.097000        14.247500        17.097000
  |  112: Species Cl        17.097000        17.097000        19.946500
  |  113: Species Cl        11.398000        11.398000         2.849500
  |  114: Species Cl        11.398000        14.247500         5.699000
  |  115: Species Cl        11.398000        17.097000         8.548500
  |  116: Species Cl        11.398000        19.946500        11.398000
  |  117: Species Cl        14.247500        11.398000         5.699000
  |  118: Species Cl        14.247500        14.247500         8.548500
  |  119: Species Cl        14.247500        17.097000        11.398000
  |  120: Species Cl        14.247500        19.946500        14.247500
  |  121: Species Cl        17.097000        11.398000         8.548500
  |  122: Species Cl        17.097000        14.247500        11.398000
  |  123: Species Cl        17.097000        17.097000        14.247500
  |  124: Species Cl        17.097000        19.946500        17.097000
  |  125: Species Cl        19.946500        11.398000        11.398000
  |  126: Species Cl        19.946500        14.247500        14.247500
  |  127: Species Cl        19.946500        17.097000        17.097000
  |  128: Species Cl        19.946500        19.946500        19.946500
 
  Structure-dependent array size parameters: 
  | Maximum number of distinct radial functions  :       17
  | Maximum number of basis functions            :     3136
  | Number of Kohn-Sham states (occupied + empty):     1088
------------------------------------------------------------
  | Super cell volume                              :   0.296153E+04  A^3
  | Reciprocial lattice vector 1: -0.275627  0.275627  0.275627
  | Reciprocial lattice vector 2:  0.275627 -0.275627  0.275627
  | Reciprocial lattice vector 3:  0.275627  0.275627 -0.275627

------------------------------------------------------------
          Preparing all fixed parts of the calculation.
------------------------------------------------------------
  Determining machine precision:
   0.222507385850720138E-307
  Setting up grids for atomic and cluster calculations.

  Creating wave function, potential, and density for free atoms.

  Species: Na

  List of occupied orbitals and eigenvalues:
    n    l      energy [Ha]    energy [eV]
    1    0       -38.025394     -1034.7236
    2    0        -2.072071       -56.3839
    3    0        -0.089934        -2.4472
    2    1        -1.040071       -28.3018


  Species: Cl

  List of occupied orbitals and eigenvalues:
    n    l      energy [Ha]    energy [eV]
    1    0      -101.452858     -2760.6727
    2    0        -9.289412      -252.7778
    3    0        -0.760218       -20.6866
    2    1        -7.043793      -191.6714
    3    1        -0.315674        -8.5899

  Creating fixed part of basis set: Ionic, confined, hydrogenic.
 
  Na                   hydrogenic:
 
  List of hydrogenic basis orbitals: 
    n    l      effective z      eigenvalue [eV]  inner max. [A]     outer max. [A]     cutoff onset [A]   
    2    1         1.200000        -4.7493           1.720587           1.720587           4.000000
    3    0         1.800000        -3.1623           0.215330           3.209579           4.000000
    3    2         3.800000       -21.8280           1.252092           1.252092           4.000000
 
 
  Cl                   ion:

  List of free ionic orbitals and eigenvalues:
    n    l      energy [Ha]    energy [eV]
    1    0      -102.554413     -2790.6476
    2    0       -10.359555      -281.8978
    3    0        -1.672516       -45.5115
    2    1        -8.116241      -220.8542
    3    1        -1.184158       -32.2226


  List of ionic basis orbitals and eigenvalues:
    n    l      energy [Ha]    energy [eV]    wfn radius [A]
    3    2        -0.528061       -14.3693       4.000000
    3    0        -1.672511       -45.5113       2.434512

 
  Cl                   hydrogenic:
 
  List of hydrogenic basis orbitals: 
    n    l      effective z      eigenvalue [eV]  inner max. [A]     outer max. [A]     cutoff onset [A]   
    2    1         1.900000       -12.2741           1.113321           1.113321           4.000000
    4    3         7.400000       -46.5653           1.140877           1.140877           3.556301
    5    4        10.400000       -58.8635           1.273568           1.273568           3.556301
 

  Adding cutoff potential to free-atom effective potential.
  Creating atomic-like basis functions for current effective potential.
  Assembling full basis from fixed parts.
  | Species Na :   atomic orbital   1 s accepted.
  | Species Na :   atomic orbital   2 s accepted.
  | Species Na :   atomic orbital   3 s accepted.
  | Species Na :    hydro orbital   3 s accepted.
  | Species Na :   atomic orbital   2 p accepted.
  | Species Na :    hydro orbital   2 p accepted.
  | Species Na :    hydro orbital   3 d accepted.
  | Species Cl :   atomic orbital   2 s accepted.
  | Species Cl :   atomic orbital   3 s accepted.
  | Species Cl :    ionic orbital   3 s accepted.
  | Species Cl :   atomic orbital   1 s accepted.
  | Species Cl :   atomic orbital   2 p accepted.
  | Species Cl :   atomic orbital   3 p accepted.
  | Species Cl :    hydro orbital   2 p accepted.
  | Species Cl :    ionic orbital   3 d accepted.
  | Species Cl :    hydro orbital   4 f accepted.
  | Species Cl :    hydro orbital   5 g accepted.
 
  Basis size parameters after reduction:
  | Total number of radial functions:       17
  | Total number of basis functions :     3136
 
  Preparing densities etc. for the partition functions (integrals / Hartree potential).

  Preparations completed.
  max(cpu_time)          :      0.840 s.
  Wall clock time (cpu1) :      0.838 s.
------------------------------------------------------------

------------------------------------------------------------
          Begin self-consistency loop: Initialization.

          Date     :  20091202, Time     :  234603.567
------------------------------------------------------------

  Initializing index lists of integration centers etc. from given atomic structure:
  Mapping all atomic coordinates to central Wigner-Seitz unit cell.

  Initializing the k-points
  | Number of k-points                             :         1
  The eigenvectors in the calculations are REAL.
  | Number of basis functions in the Hamiltonian integrals :     15989
  | Number of basis functions in a single unit cell        :      3136
  | Number of centers in hamiltonian partition_tab :       128
  | Number of centers in hartree potential         :      2247
  | Number of centers in hartree multipole         :      2000
  | Number of centers in electron density summation:      1556
  | Number of centers in basis integrals           :      1569
  | Number of centers in integrals                 :       773
  | Number of super-cells :         28
  | Size of matrix packed + index : 7308667
 Using modified Scalapack Eigenvalue solver (scalapack_fast)
 Calculating blocksize based on n_basis =  3136  max_nprow =  4  max_npcol =  4
 Scalapack blocksize set to:  16
 Required Scalapack workspace - INTEGER:  1  REAL:   1
  Partitioning the integration grid into batches with parallel hashing+maxmin method.
  | Number of batches:    52224
  | Maximal batch size:      86
  | Minimal batch size:      61
  | Average batch size:      69.789
  | Standard deviation of batch sizes:       6.249
 
  Integration load balanced across    16 MPI tasks. 
  Work distribution over tasks is as follows:
  Task     0 has     227796 integration points.
  Task     1 has     227805 integration points.
  Task     2 has     227798 integration points.
  Task     3 has     227756 integration points.
  Task     4 has     227755 integration points.
  Task     5 has     227757 integration points.
  Task     6 has     227834 integration points.
  Task     7 has     227796 integration points.
  Task     8 has     227808 integration points.
  Task     9 has     227833 integration points.
  Task    10 has     227798 integration points.
  Task    11 has     227797 integration points.
  Task    12 has     227794 integration points.
  Task    13 has     227755 integration points.
  Task    14 has     227835 integration points.
  Task    15 has     227755 integration points.
  Initializing partition tables, free-atom densities, potentials, etc.
  across the integration grid (initialize_grid_storage).
  | Net number of integration points:  3644672
  | of which are non-zero points    :  2876804
  | Average free-atom electrostatic potential              :     -9.29264541 eV
  Obtaining max. number of non-zero basis functions in each batch (get_n_compute_maxes).
  | Maximal number of non-zero basis functions:      800 in task     0
  For each atomic center, finding distance to closest integration grid point.
  | Maximal number of non-zero basis functions:      794 in task     1
  | Maximal number of non-zero basis functions:      803 in task     2
  | Maximal number of non-zero basis functions:      805 in task     3
  | Maximal number of non-zero basis functions:      828 in task     4
  | Maximal number of non-zero basis functions:      797 in task     5
  | Maximal number of non-zero basis functions:      793 in task     6
  | Maximal number of non-zero basis functions:      792 in task     7
  | Maximal number of non-zero basis functions:      807 in task     8
  | Maximal number of non-zero basis functions:      800 in task     9
  | Maximal number of non-zero basis functions:      802 in task    10
  | Maximal number of non-zero basis functions:      783 in task    11
  | Maximal number of non-zero basis functions:      802 in task    12
  | Maximal number of non-zero basis functions:      804 in task    13
  | Maximal number of non-zero basis functions:      807 in task    14
  | Maximal number of non-zero basis functions:      808 in task    15
  Integrating overlap matrix.
  Integrating Hamiltonian matrix: batch-based integration.
 Decreasing sparse matrix size
   Tolerance: 0.999999982451670044E-13
   Hamiltonian matrix
  | Array has  5458054 nonzero elements out of  7308667 elements
  | Sparsity factor is 0.253
   Overlap matrix
  | Array has  4916939 nonzero elements out of  7308667 elements
  | Sparsity factor is 0.327
  New size of hamiltonian matrix:     5475171
  Deallocating overlap matrix.

  Updating Kohn-Sham eigenvalues, eigenvectors, occupation numbers, and Fermi level.
  Solving real symmetric generalised eigenvalue problem by standard ScaLAPACK.
  Transforming overlap matrix with ScaLAPACK and checking for singularities.
  Factoring overlap matrix with Cholesky decomposition
  : Overlap matrix is nonsingular, using Cholesky decomposition
  | Lowest eigenvalue:  0.542908E-03
  Using Cholesky factor for transformation
  Determining occupation numbers for Kohn-Sham eigenstates.
  | Chemical potential (Fermi level) in eV                 : -.82851925E+01
  | Error in electron count due to remaining E_F inaccuracy: 0.00000000E+00

  Writing Kohn-Sham eigenvalues.

  State    Occupation    Eigenvalue [Ha]    Eigenvalue [eV]
      1       2.00000        -101.473174        -2761.22554
      2       2.00000        -101.473174        -2761.22554
      3       2.00000        -101.473107        -2761.22373
      4       2.00000        -101.473107        -2761.22373
      5       2.00000        -101.473107        -2761.22373
      6       2.00000        -101.473107        -2761.22373
      7       2.00000        -101.473107        -2761.22373
      8       2.00000        -101.473107        -2761.22373
      9       2.00000        -101.473107        -2761.22373
     10       2.00000        -101.473107        -2761.22373
     11       2.00000        -101.473107        -2761.22373
     12       2.00000        -101.473107        -2761.22373
     13       2.00000        -101.473107        -2761.22373
     14       2.00000        -101.473107        -2761.22373
     15       2.00000        -101.473107        -2761.22373
     16       2.00000        -101.473107        -2761.22373
     17       2.00000        -101.473107        -2761.22373
     18       2.00000        -101.473107        -2761.22373
     19       2.00000        -101.473107        -2761.22373
     20       2.00000        -101.473107        -2761.22373
     21       2.00000        -101.473107        -2761.22373
     22       2.00000        -101.473107        -2761.22373
     23       2.00000        -101.473107        -2761.22373
     24       2.00000        -101.473107        -2761.22373
     25       2.00000        -101.473107        -2761.22373
     26       2.00000        -101.473107        -2761.22373
     27       2.00000        -101.473107        -2761.22373
     28       2.00000        -101.473107        -2761.22373
     29       2.00000        -101.473107        -2761.22373
     30       2.00000        -101.473107        -2761.22373
     31       2.00000        -101.473107        -2761.22373
     32       2.00000        -101.473107        -2761.22373
     33       2.00000        -101.473107        -2761.22373
     34       2.00000        -101.473107        -2761.22373
     35       2.00000        -101.473107        -2761.22373
     36       2.00000        -101.473107        -2761.22373
     37       2.00000        -101.473107        -2761.22373
     38       2.00000        -101.473107        -2761.22373
     39       2.00000        -101.473107        -2761.22373
     40       2.00000        -101.473107        -2761.22373
     41       2.00000        -101.473107        -2761.22373
     42       2.00000        -101.473107        -2761.22373
     43       2.00000        -101.473107        -2761.22373
     44       2.00000        -101.473107        -2761.22373
     45       2.00000        -101.473107        -2761.22373
     46       2.00000        -101.473107        -2761.22373
     47       2.00000        -101.473107        -2761.22373
     48       2.00000        -101.473107        -2761.22373
     49       2.00000        -101.473107        -2761.22373
     50       2.00000        -101.473107        -2761.22373
     51       2.00000        -101.473107        -2761.22373
     52       2.00000        -101.473107        -2761.22373
     53       2.00000        -101.473107        -2761.22373
     54       2.00000        -101.473107        -2761.22373
     55       2.00000        -101.473107        -2761.22373
     56       2.00000        -101.473107        -2761.22373
     57       2.00000        -101.473107        -2761.22373
     58       2.00000        -101.473107        -2761.22373
     59       2.00000        -101.473107        -2761.22373
     60       2.00000        -101.473107        -2761.22373
     61       2.00000        -101.473107        -2761.22373
     62       2.00000        -101.473107        -2761.22373
     63       2.00000        -101.473042        -2761.22195
     64       2.00000        -101.473042        -2761.22195
     65       2.00000         -38.027105        -1034.77018
     66       2.00000         -38.027104        -1034.77015
     67       2.00000         -38.027104        -1034.77015
     68       2.00000         -38.027104        -1034.77015
     69       2.00000         -38.027104        -1034.77015
     70       2.00000         -38.027103        -1034.77013
     71       2.00000         -38.027103        -1034.77012
     72       2.00000         -38.027103        -1034.77012
     73       2.00000         -38.027103        -1034.77012
     74       2.00000         -38.027103        -1034.77012
     75       2.00000         -38.027103        -1034.77012
     76       2.00000         -38.027103        -1034.77012
     77       2.00000         -38.027103        -1034.77012
     78       2.00000         -38.027103        -1034.77012
     79       2.00000         -38.027103        -1034.77012
     80       2.00000         -38.027103        -1034.77012
     81       2.00000         -38.027103        -1034.77012
     82       2.00000         -38.027103        -1034.77012
     83       2.00000         -38.027103        -1034.77012
     84       2.00000         -38.027103        -1034.77012
     85       2.00000         -38.027103        -1034.77012
     86       2.00000         -38.027103        -1034.77012
     87       2.00000         -38.027103        -1034.77012
     88       2.00000         -38.027103        -1034.77012
     89       2.00000         -38.027103        -1034.77012
     90       2.00000         -38.027103        -1034.77012
     91       2.00000         -38.027103        -1034.77012
     92       2.00000         -38.027103        -1034.77012
     93       2.00000         -38.027103        -1034.77012
     94       2.00000         -38.027103        -1034.77012
     95       2.00000         -38.027103        -1034.77012
     96       2.00000         -38.027103        -1034.77012
     97       2.00000         -38.027103        -1034.77012
     98       2.00000         -38.027103        -1034.77012
     99       2.00000         -38.027103        -1034.77012
    100       2.00000         -38.027103        -1034.77012
    101       2.00000         -38.027103        -1034.77012
    102       2.00000         -38.027103        -1034.77012
    103       2.00000         -38.027103        -1034.77012
    104       2.00000         -38.027103        -1034.77012
    105       2.00000         -38.027103        -1034.77012
    106       2.00000         -38.027103        -1034.77012
    107       2.00000         -38.027103        -1034.77012
    108       2.00000         -38.027103        -1034.77012
    109       2.00000         -38.027103        -1034.77012
    110       2.00000         -38.027103        -1034.77012
    111       2.00000         -38.027103        -1034.77012
    112       2.00000         -38.027103        -1034.77012
    113       2.00000         -38.027103        -1034.77012
    114       2.00000         -38.027103        -1034.77012
    115       2.00000         -38.027103        -1034.77012
    116       2.00000         -38.027103        -1034.77012
    117       2.00000         -38.027103        -1034.77012
    118       2.00000         -38.027103        -1034.77012
    119       2.00000         -38.027103        -1034.77012
    120       2.00000         -38.027103        -1034.77012
    121       2.00000         -38.027103        -1034.77012
    122       2.00000         -38.027103        -1034.77012
    123       2.00000         -38.027103        -1034.77012
    124       2.00000         -38.027102        -1034.77009
    125       2.00000         -38.027102        -1034.77009
    126       2.00000         -38.027102        -1034.77009
    127       2.00000         -38.027102        -1034.77009
    128       2.00000         -38.027101        -1034.77006
    129       2.00000          -9.311036         -253.36619
    130       2.00000          -9.311036         -253.36619
    131       2.00000          -9.310967         -253.36430
    132       2.00000          -9.310967         -253.36430
    133       2.00000          -9.310967         -253.36430
    134       2.00000          -9.310967         -253.36430
    135       2.00000          -9.310967         -253.36430
    136       2.00000          -9.310967         -253.36430
    137       2.00000          -9.310967         -253.36430
    138       2.00000          -9.310967         -253.36430
    139       2.00000          -9.310967         -253.36430
    140       2.00000          -9.310967         -253.36430
    141       2.00000          -9.310967         -253.36430
    142       2.00000          -9.310967         -253.36430
    143       2.00000          -9.310967         -253.36430
    144       2.00000          -9.310967         -253.36430
    145       2.00000          -9.310967         -253.36430
    146       2.00000          -9.310967         -253.36430
    147       2.00000          -9.310967         -253.36430
    148       2.00000          -9.310967         -253.36430
    149       2.00000          -9.310967         -253.36430
    150       2.00000          -9.310967         -253.36430
    151       2.00000          -9.310967         -253.36430
    152       2.00000          -9.310967         -253.36430
    153       2.00000          -9.310967         -253.36430
    154       2.00000          -9.310967         -253.36430
    155       2.00000          -9.310967         -253.36430
    156       2.00000          -9.310967         -253.36430
    157       2.00000          -9.310967         -253.36430
    158       2.00000          -9.310967         -253.36430
    159       2.00000          -9.310967         -253.36430
    160       2.00000          -9.310967         -253.36430
    161       2.00000          -9.310967         -253.36430
    162       2.00000          -9.310967         -253.36430
    163       2.00000          -9.310967         -253.36430
    164       2.00000          -9.310967         -253.36430
    165       2.00000          -9.310967         -253.36430
    166       2.00000          -9.310967         -253.36430
    167       2.00000          -9.310967         -253.36430
    168       2.00000          -9.310967         -253.36430
    169       2.00000          -9.310967         -253.36430
    170       2.00000          -9.310967         -253.36430
    171       2.00000          -9.310967         -253.36430
    172       2.00000          -9.310967         -253.36430
    173       2.00000          -9.310967         -253.36430
    174       2.00000          -9.310967         -253.36430
    175       2.00000          -9.310967         -253.36430
    176       2.00000          -9.310967         -253.36430
    177       2.00000          -9.310967         -253.36430
    178       2.00000          -9.310967         -253.36430
    179       2.00000          -9.310967         -253.36430
    180       2.00000          -9.310967         -253.36430
    181       2.00000          -9.310967         -253.36430
    182       2.00000          -9.310967         -253.36430
    183       2.00000          -9.310967         -253.36430
    184       2.00000          -9.310967         -253.36430
    185       2.00000          -9.310967         -253.36430
    186       2.00000          -9.310967         -253.36430
    187       2.00000          -9.310967         -253.36430
    188       2.00000          -9.310967         -253.36430
    189       2.00000          -9.310967         -253.36429
    190       2.00000          -9.310967         -253.36429
    191       2.00000          -9.310898         -253.36244
    192       2.00000          -9.310898         -253.36244
    193       2.00000          -7.065260         -192.25551
    194       2.00000          -7.065260         -192.25551
    195       2.00000          -7.065255         -192.25537
    196       2.00000          -7.065255         -192.25537
    197       2.00000          -7.065255         -192.25537
    198       2.00000          -7.065255         -192.25537
    199       2.00000          -7.065188         -192.25356
    200       2.00000          -7.065188         -192.25356
    201       2.00000          -7.065188         -192.25353
    202       2.00000          -7.065188         -192.25353
    203       2.00000          -7.065188         -192.25353
    204       2.00000          -7.065188         -192.25353
    205       2.00000          -7.065188         -192.25353
    206       2.00000          -7.065188         -192.25353
    207       2.00000          -7.065188         -192.25353
    208       2.00000          -7.065188         -192.25353
    209       2.00000          -7.065188         -192.25353
    210       2.00000          -7.065188         -192.25353
    211       2.00000          -7.065188         -192.25353
    212       2.00000          -7.065188         -192.25353
    213       2.00000          -7.065188         -192.25353
    214       2.00000          -7.065188         -192.25353
    215       2.00000          -7.065188         -192.25353
    216       2.00000          -7.065188         -192.25353
    217       2.00000          -7.065188         -192.25353
    218       2.00000          -7.065188         -192.25353
    219       2.00000          -7.065188         -192.25353
    220       2.00000          -7.065188         -192.25353
    221       2.00000          -7.065188         -192.25353
    222       2.00000          -7.065188         -192.25353
    223       2.00000          -7.065188         -192.25353
    224       2.00000          -7.065188         -192.25353
    225       2.00000          -7.065188         -192.25353
    226       2.00000          -7.065188         -192.25353
    227       2.00000          -7.065188         -192.25353
    228       2.00000          -7.065188         -192.25353
    229       2.00000          -7.065188         -192.25353
    230       2.00000          -7.065188         -192.25353
    231       2.00000          -7.065188         -192.25353
    232       2.00000          -7.065188         -192.25353
    233       2.00000          -7.065188         -192.25353
    234       2.00000          -7.065188         -192.25353
    235       2.00000          -7.065188         -192.25353
    236       2.00000          -7.065188         -192.25353
    237       2.00000          -7.065188         -192.25353
    238       2.00000          -7.065188         -192.25353
    239       2.00000          -7.065188         -192.25353
    240       2.00000          -7.065188         -192.25353
    241       2.00000          -7.065188         -192.25353
    242       2.00000          -7.065188         -192.25353
    243       2.00000          -7.065188         -192.25353
    244       2.00000          -7.065188         -192.25353
    245       2.00000          -7.065188         -192.25353
    246       2.00000          -7.065188         -192.25353
    247       2.00000          -7.065188         -192.25353
    248       2.00000          -7.065188         -192.25353
    249       2.00000          -7.065188         -192.25353
    250       2.00000          -7.065188         -192.25353
    251       2.00000          -7.065188         -192.25353
    252       2.00000          -7.065188         -192.25353
    253       2.00000          -7.065188         -192.25353
    254       2.00000          -7.065188         -192.25353
    255       2.00000          -7.065188         -192.25353
    256       2.00000          -7.065188         -192.25353
    257       2.00000          -7.065188         -192.25353
    258       2.00000          -7.065188         -192.25353
    259       2.00000          -7.065188         -192.25353
    260       2.00000          -7.065188         -192.25353
    261       2.00000          -7.065188         -192.25353
    262       2.00000          -7.065188         -192.25353
    263       2.00000          -7.065188         -192.25353
    264       2.00000          -7.065188         -192.25353
    265       2.00000          -7.065188         -192.25353
    266       2.00000          -7.065188         -192.25353
    267       2.00000          -7.065188         -192.25353
    268       2.00000          -7.065188         -192.25353
    269       2.00000          -7.065188         -192.25353
    270       2.00000          -7.065188         -192.25353
    271       2.00000          -7.065188         -192.25353
    272       2.00000          -7.065188         -192.25353
    273       2.00000          -7.065188         -192.25353
    274       2.00000          -7.065188         -192.25353
    275       2.00000          -7.065188         -192.25353
    276       2.00000          -7.065188         -192.25353
    277       2.00000          -7.065188         -192.25353
    278       2.00000          -7.065188         -192.25353
    279       2.00000          -7.065188         -192.25353
    280       2.00000          -7.065188         -192.25353
    281       2.00000          -7.065188         -192.25353
    282       2.00000          -7.065188         -192.25353
    283       2.00000          -7.065188         -192.25353
    284       2.00000          -7.065188         -192.25353
    285       2.00000          -7.065188         -192.25353
    286       2.00000          -7.065188         -192.25353
    287       2.00000          -7.065188         -192.25353
    288       2.00000          -7.065188         -192.25353
    289       2.00000          -7.065188         -192.25353
    290       2.00000          -7.065188         -192.25353
    291       2.00000          -7.065188         -192.25353
    292       2.00000          -7.065188         -192.25353
    293       2.00000          -7.065188         -192.25353
    294       2.00000          -7.065188         -192.25353
    295       2.00000          -7.065188         -192.25353
    296       2.00000          -7.065188         -192.25353
    297       2.00000          -7.065188         -192.25353
    298       2.00000          -7.065188         -192.25353
    299       2.00000          -7.065188         -192.25353
    300       2.00000          -7.065188         -192.25353
    301       2.00000          -7.065188         -192.25353
    302       2.00000          -7.065188         -192.25353
    303       2.00000          -7.065188         -192.25353
    304       2.00000          -7.065188         -192.25353
    305       2.00000          -7.065188         -192.25353
    306       2.00000          -7.065188         -192.25353
    307       2.00000          -7.065188         -192.25353
    308       2.00000          -7.065188         -192.25353
    309       2.00000          -7.065188         -192.25353
    310       2.00000          -7.065188         -192.25353
    311       2.00000          -7.065188         -192.25353
    312       2.00000          -7.065188         -192.25353
    313       2.00000          -7.065188         -192.25353
    314       2.00000          -7.065188         -192.25353
    315       2.00000          -7.065188         -192.25353
    316       2.00000          -7.065188         -192.25353
    317       2.00000          -7.065188         -192.25353
    318       2.00000          -7.065188         -192.25353
    319       2.00000          -7.065188         -192.25353
    320       2.00000          -7.065188         -192.25353
    321       2.00000          -7.065188         -192.25353
    322       2.00000          -7.065188         -192.25353
    323       2.00000          -7.065188         -192.25353
    324       2.00000          -7.065188         -192.25353
    325       2.00000          -7.065188         -192.25353
    326       2.00000          -7.065188         -192.25353
    327       2.00000          -7.065188         -192.25353
    328       2.00000          -7.065188         -192.25353
    329       2.00000          -7.065188         -192.25353
    330       2.00000          -7.065188         -192.25353
    331       2.00000          -7.065188         -192.25353
    332       2.00000          -7.065188         -192.25353
    333       2.00000          -7.065188         -192.25353
    334       2.00000          -7.065188         -192.25353
    335       2.00000          -7.065188         -192.25353
    336       2.00000          -7.065188         -192.25353
    337       2.00000          -7.065188         -192.25353
    338       2.00000          -7.065188         -192.25353
    339       2.00000          -7.065188         -192.25353
    340       2.00000          -7.065188         -192.25353
    341       2.00000          -7.065188         -192.25353
    342       2.00000          -7.065188         -192.25353
    343       2.00000          -7.065188         -192.25353
    344       2.00000          -7.065188         -192.25353
    345       2.00000          -7.065188         -192.25353
    346       2.00000          -7.065188         -192.25353
    347       2.00000          -7.065188         -192.25353
    348       2.00000          -7.065188         -192.25353
    349       2.00000          -7.065188         -192.25353
    350       2.00000          -7.065188         -192.25353
    351       2.00000          -7.065188         -192.25353
    352       2.00000          -7.065188         -192.25353
    353       2.00000          -7.065188         -192.25353
    354       2.00000          -7.065188         -192.25353
    355       2.00000          -7.065188         -192.25353
    356       2.00000          -7.065188         -192.25353
    357       2.00000          -7.065188         -192.25353
    358       2.00000          -7.065188         -192.25353
    359       2.00000          -7.065188         -192.25353
    360       2.00000          -7.065188         -192.25353
    361       2.00000          -7.065188         -192.25353
    362       2.00000          -7.065188         -192.25353
    363       2.00000          -7.065188         -192.25353
    364       2.00000          -7.065188         -192.25353
    365       2.00000          -7.065188         -192.25353
    366       2.00000          -7.065188         -192.25353
    367       2.00000          -7.065188         -192.25353
    368       2.00000          -7.065188         -192.25353
    369       2.00000          -7.065188         -192.25353
    370       2.00000          -7.065188         -192.25353
    371       2.00000          -7.065188         -192.25353
    372       2.00000          -7.065188         -192.25353
    373       2.00000          -7.065188         -192.25353
    374       2.00000          -7.065188         -192.25353
    375       2.00000          -7.065187         -192.25353
    376       2.00000          -7.065187         -192.25353
    377       2.00000          -7.065186         -192.25350
    378       2.00000          -7.065186         -192.25350
    379       2.00000          -7.065121         -192.25173
    380       2.00000          -7.065121         -192.25173
    381       2.00000          -7.065121         -192.25173
    382       2.00000          -7.065121         -192.25173
    383       2.00000          -7.065116         -192.25159
    384       2.00000          -7.065116         -192.25159
    385       2.00000          -2.075384          -56.47406
    386       2.00000          -2.075371          -56.47373
    387       2.00000          -2.075371          -56.47371
    388       2.00000          -2.075370          -56.47370
    389       2.00000          -2.075370          -56.47370
    390       2.00000          -2.075370          -56.47370
    391       2.00000          -2.075370          -56.47370
    392       2.00000          -2.075370          -56.47369
    393       2.00000          -2.075370          -56.47368
    394       2.00000          -2.075366          -56.47359
    395       2.00000          -2.075366          -56.47359
    396       2.00000          -2.075366          -56.47358
    397       2.00000          -2.075366          -56.47358
    398       2.00000          -2.075366          -56.47358
    399       2.00000          -2.075366          -56.47357
    400       2.00000          -2.075359          -56.47338
    401       2.00000          -2.075358          -56.47337
    402       2.00000          -2.075358          -56.47336
    403       2.00000          -2.075357          -56.47335
    404       2.00000          -2.075357          -56.47335
    405       2.00000          -2.075357          -56.47335
    406       2.00000          -2.075357          -56.47334
    407       2.00000          -2.075357          -56.47334
    408       2.00000          -2.075357          -56.47334
    409       2.00000          -2.075357          -56.47334
    410       2.00000          -2.075357          -56.47334
    411       2.00000          -2.075357          -56.47334
    412       2.00000          -2.075357          -56.47334
    413       2.00000          -2.075357          -56.47333
    414       2.00000          -2.075357          -56.47333
    415       2.00000          -2.075357          -56.47332
    416       2.00000          -2.075354          -56.47326
    417       2.00000          -2.075354          -56.47325
    418       2.00000          -2.075354          -56.47325
    419       2.00000          -2.075353          -56.47324
    420       2.00000          -2.075353          -56.47324
    421       2.00000          -2.075353          -56.47323
    422       2.00000          -2.075353          -56.47323
    423       2.00000          -2.075353          -56.47323
    424       2.00000          -2.075353          -56.47323
    425       2.00000          -2.075353          -56.47323
    426       2.00000          -2.075353          -56.47323
    427       2.00000          -2.075353          -56.47323
    428       2.00000          -2.075353          -56.47323
    429       2.00000          -2.075353          -56.47323
    430       2.00000          -2.075353          -56.47323
    431       2.00000          -2.075353          -56.47323
    432       2.00000          -2.075353          -56.47323
    433       2.00000          -2.075353          -56.47323
    434       2.00000          -2.075353          -56.47323
    435       2.00000          -2.075353          -56.47322
    436       2.00000          -2.075352          -56.47321
    437       2.00000          -2.075352          -56.47321
    438       2.00000          -2.075352          -56.47320
    439       2.00000          -2.075351          -56.47319
    440       2.00000          -2.075349          -56.47312
    441       2.00000          -2.075349          -56.47312
    442       2.00000          -2.075349          -56.47311
    443       2.00000          -2.075349          -56.47311
    444       2.00000          -2.075349          -56.47311
    445       2.00000          -2.075349          -56.47311
    446       2.00000          -2.075349          -56.47311
    447       2.00000          -2.075348          -56.47310
    448       2.00000          -2.075348          -56.47308
    449       2.00000          -1.044908          -28.43339
    450       2.00000          -1.044908          -28.43339
    451       2.00000          -1.044908          -28.43339
    452       2.00000          -1.044908          -28.43339
    453       2.00000          -1.044570          -28.42419
    454       2.00000          -1.044570          -28.42418
    455       2.00000          -1.044569          -28.42417
    456       2.00000          -1.044568          -28.42415
    457       2.00000          -1.044568          -28.42415
    458       2.00000          -1.044568          -28.42415
    459       2.00000          -1.044568          -28.42415
    460       2.00000          -1.044568          -28.42415
    461       2.00000          -1.044568          -28.42415
    462       2.00000          -1.044568          -28.42414
    463       2.00000          -1.044568          -28.42414
    464       2.00000          -1.044568          -28.42414
    465       2.00000          -1.044568          -28.42414
    466       2.00000          -1.044568          -28.42414
    467       2.00000          -1.044568          -28.42414
    468       2.00000          -1.044568          -28.42414
    469       2.00000          -1.044568          -28.42414
    470       2.00000          -1.044568          -28.42414
    471       2.00000          -1.044568          -28.42413
    472       2.00000          -1.044568          -28.42413
    473       2.00000          -1.044568          -28.42413
    474       2.00000          -1.044567          -28.42412
    475       2.00000          -1.044567          -28.42411
    476       2.00000          -1.044567          -28.42410
    477       2.00000          -1.044548          -28.42359
    478       2.00000          -1.044547          -28.42358
    479       2.00000          -1.044547          -28.42356
    480       2.00000          -1.044547          -28.42356
    481       2.00000          -1.044547          -28.42356
    482       2.00000          -1.044547          -28.42356
    483       2.00000          -1.044547          -28.42356
    484       2.00000          -1.044547          -28.42356
    485       2.00000          -1.044547          -28.42356
    486       2.00000          -1.044547          -28.42356
    487       2.00000          -1.044546          -28.42353
    488       2.00000          -1.044545          -28.42353
    489       2.00000          -1.044477          -28.42167
    490       2.00000          -1.044477          -28.42167
    491       2.00000          -1.044477          -28.42167
    492       2.00000          -1.044331          -28.41768
    493       2.00000          -1.044330          -28.41767
    494       2.00000          -1.044330          -28.41767
    495       2.00000          -1.044330          -28.41767
    496       2.00000          -1.044330          -28.41767
    497       2.00000          -1.044330          -28.41767
    498       2.00000          -1.044330          -28.41766
    499       2.00000          -1.044330          -28.41765
    500       2.00000          -1.044257          -28.41567
    501       2.00000          -1.044257          -28.41567
    502       2.00000          -1.044256          -28.41566
    503       2.00000          -1.044256          -28.41566
    504       2.00000          -1.044256          -28.41565
    505       2.00000          -1.044256          -28.41565
    506       2.00000          -1.044256          -28.41565
    507       2.00000          -1.044256          -28.41565
    508       2.00000          -1.044256          -28.41564
    509       2.00000          -1.044256          -28.41564
    510       2.00000          -1.044255          -28.41563
    511       2.00000          -1.044255          -28.41563
    512       2.00000          -1.044223          -28.41477
    513       2.00000          -1.044223          -28.41476
    514       2.00000          -1.044223          -28.41476
    515       2.00000          -1.044223          -28.41476
    516       2.00000          -1.044223          -28.41475
    517       2.00000          -1.044223          -28.41475
    518       2.00000          -1.044143          -28.41258
    519       2.00000          -1.044143          -28.41257
    520       2.00000          -1.044143          -28.41256
    521       2.00000          -1.044143          -28.41256
    522       2.00000          -1.044142          -28.41256
    523       2.00000          -1.044142          -28.41255
    524       2.00000          -1.044071          -28.41063
    525       2.00000          -1.044071          -28.41063
    526       2.00000          -1.044071          -28.41062
    527       2.00000          -1.044071          -28.41062
    528       2.00000          -1.044071          -28.41062
    529       2.00000          -1.044071          -28.41062
    530       2.00000          -1.044071          -28.41062
    531       2.00000          -1.044071          -28.41062
    532       2.00000          -1.044071          -28.41062
    533       2.00000          -1.044071          -28.41062
    534       2.00000          -1.044071          -28.41061
    535       2.00000          -1.044071          -28.41061
    536       2.00000          -1.044052          -28.41009
    537       2.00000          -1.044052          -28.41009
    538       2.00000          -1.044051          -28.41009
    539       2.00000          -1.044051          -28.41008
    540       2.00000          -1.044051          -28.41008
    541       2.00000          -1.044051          -28.41007
    542       2.00000          -1.044051          -28.41007
    543       2.00000          -1.044051          -28.41007
    544       2.00000          -1.044051          -28.41007
    545       2.00000          -1.044051          -28.41007
    546       2.00000          -1.044051          -28.41007
    547       2.00000          -1.044051          -28.41007
    548       2.00000          -1.044051          -28.41007
    549       2.00000          -1.044051          -28.41007
    550       2.00000          -1.044051          -28.41007
    551       2.00000          -1.044051          -28.41007
    552       2.00000          -1.044051          -28.41007
    553       2.00000          -1.044051          -28.41006
    554       2.00000          -1.044051          -28.41006
    555       2.00000          -1.044051          -28.41006
    556       2.00000          -1.044050          -28.41006
    557       2.00000          -1.044050          -28.41005
    558       2.00000          -1.044050          -28.41005
    559       2.00000          -1.044050          -28.41005
    560       2.00000          -1.044037          -28.40970
    561       2.00000          -1.044037          -28.40970
    562       2.00000          -1.044037          -28.40970
    563       2.00000          -1.044037          -28.40970
    564       2.00000          -1.044037          -28.40969
    565       2.00000          -1.044037          -28.40969
    566       2.00000          -1.043927          -28.40669
    567       2.00000          -1.043926          -28.40668
    568       2.00000          -1.043926          -28.40668
    569       2.00000          -1.043926          -28.40668
    570       2.00000          -1.043926          -28.40668
    571       2.00000          -1.043926          -28.40667
    572       2.00000          -1.043926          -28.40667
    573       2.00000          -1.043926          -28.40667
    574       2.00000          -1.043926          -28.40667
    575       2.00000          -1.043926          -28.40667
    576       2.00000          -1.043926          -28.40667
    577       2.00000          -1.043926          -28.40667
    578       2.00000          -1.043926          -28.40667
    579       2.00000          -1.043926          -28.40667
    580       2.00000          -1.043926          -28.40666
    581       2.00000          -1.043926          -28.40666
    582       2.00000          -1.043926          -28.40666
    583       2.00000          -1.043926          -28.40666
    584       2.00000          -1.043926          -28.40666
    585       2.00000          -1.043925          -28.40666
    586       2.00000          -1.043925          -28.40665
    587       2.00000          -1.043925          -28.40665
    588       2.00000          -1.043925          -28.40665
    589       2.00000          -1.043925          -28.40664
    590       2.00000          -1.043889          -28.40565
    591       2.00000          -1.043889          -28.40565
    592       2.00000          -1.043889          -28.40565
    593       2.00000          -1.043889          -28.40565
    594       2.00000          -1.043888          -28.40565
    595       2.00000          -1.043888          -28.40565
    596       2.00000          -1.043888          -28.40565
    597       2.00000          -1.043888          -28.40565
    598       2.00000          -1.043888          -28.40564
    599       2.00000          -1.043888          -28.40564
    600       2.00000          -1.043888          -28.40564
    601       2.00000          -1.043888          -28.40564
    602       2.00000          -1.043816          -28.40368
    603       2.00000          -1.043816          -28.40367
    604       2.00000          -1.043816          -28.40367
    605       2.00000          -1.043815          -28.40366
    606       2.00000          -1.043815          -28.40366
    607       2.00000          -1.043815          -28.40366
    608       2.00000          -1.043815          -28.40366
    609       2.00000          -1.043815          -28.40366
    610       2.00000          -1.043815          -28.40366
    611       2.00000          -1.043815          -28.40366
    612       2.00000          -1.043815          -28.40365
    613       2.00000          -1.043815          -28.40365
    614       2.00000          -1.043815          -28.40364
    615       2.00000          -1.043815          -28.40364
    616       2.00000          -1.043815          -28.40364
    617       2.00000          -1.043815          -28.40364
    618       2.00000          -1.043814          -28.40364
    619       2.00000          -1.043814          -28.40363
    620       2.00000          -1.043814          -28.40363
    621       2.00000          -1.043814          -28.40363
    622       2.00000          -1.043778          -28.40265
    623       2.00000          -1.043778          -28.40265
    624       2.00000          -1.043778          -28.40265
    625       2.00000          -1.043778          -28.40265
    626       2.00000          -1.043778          -28.40264
    627       2.00000          -1.043778          -28.40264
    628       2.00000          -1.043778          -28.40264
    629       2.00000          -1.043778          -28.40264
    630       2.00000          -1.043778          -28.40264
    631       2.00000          -1.043778          -28.40264
    632       2.00000          -1.043778          -28.40264
    633       2.00000          -1.043778          -28.40264
    634       2.00000          -1.043778          -28.40263
    635       2.00000          -1.043777          -28.40263
    636       2.00000          -1.043777          -28.40263
    637       2.00000          -1.043777          -28.40263
    638       2.00000          -1.043741          -28.40164
    639       2.00000          -1.043741          -28.40164
    640       2.00000          -1.043741          -28.40164
    641       2.00000          -0.807796          -21.98126
    642       2.00000          -0.802903          -21.84811
    643       2.00000          -0.802885          -21.84763
    644       2.00000          -0.802885          -21.84762
    645       2.00000          -0.802885          -21.84762
    646       2.00000          -0.802885          -21.84762
    647       2.00000          -0.802885          -21.84762
    648       2.00000          -0.802885          -21.84761
    649       2.00000          -0.802868          -21.84715
    650       2.00000          -0.801783          -21.81763
    651       2.00000          -0.801778          -21.81750
    652       2.00000          -0.801772          -21.81733
    653       2.00000          -0.801772          -21.81733
    654       2.00000          -0.801767          -21.81718
    655       2.00000          -0.801762          -21.81704
    656       2.00000          -0.798383          -21.72510
    657       2.00000          -0.798382          -21.72509
    658       2.00000          -0.798365          -21.72461
    659       2.00000          -0.798365          -21.72460
    660       2.00000          -0.798365          -21.72460
    661       2.00000          -0.798365          -21.72460
    662       2.00000          -0.798365          -21.72460
    663       2.00000          -0.798365          -21.72460
    664       2.00000          -0.798364          -21.72460
    665       2.00000          -0.798364          -21.72460
    666       2.00000          -0.798349          -21.72417
    667       2.00000          -0.798348          -21.72414
    668       2.00000          -0.797757          -21.70808
    669       2.00000          -0.797756          -21.70806
    670       2.00000          -0.797756          -21.70805
    671       2.00000          -0.797756          -21.70805
    672       2.00000          -0.797245          -21.69414
    673       2.00000          -0.797233          -21.69382
    674       2.00000          -0.797204          -21.69302
    675       2.00000          -0.797204          -21.69302
    676       2.00000          -0.797204          -21.69302
    677       2.00000          -0.797204          -21.69302
    678       2.00000          -0.797204          -21.69302
    679       2.00000          -0.797204          -21.69302
    680       2.00000          -0.797204          -21.69302
    681       2.00000          -0.797204          -21.69302
    682       2.00000          -0.797204          -21.69302
    683       2.00000          -0.797204          -21.69302
    684       2.00000          -0.797204          -21.69302
    685       2.00000          -0.797204          -21.69302
    686       2.00000          -0.797204          -21.69302
    687       2.00000          -0.797204          -21.69302
    688       2.00000          -0.797204          -21.69302
    689       2.00000          -0.797204          -21.69302
    690       2.00000          -0.797204          -21.69302
    691       2.00000          -0.797204          -21.69302
    692       2.00000          -0.797204          -21.69302
    693       2.00000          -0.797204          -21.69302
    694       2.00000          -0.797173          -21.69219
    695       2.00000          -0.797162          -21.69188
    696       2.00000          -0.796616          -21.67703
    697       2.00000          -0.796616          -21.67701
    698       2.00000          -0.796615          -21.67700
    699       2.00000          -0.796062          -21.66196
    700       2.00000          -0.796058          -21.66185
    701       2.00000          -0.796052          -21.66169
    702       2.00000          -0.796052          -21.66169
    703       2.00000          -0.796046          -21.66152
    704       2.00000          -0.796041          -21.66139
    705       2.00000          -0.399878          -10.88124
    706       2.00000          -0.399878          -10.88124
    707       2.00000          -0.399878          -10.88124
    708       2.00000          -0.399878          -10.88124
    709       2.00000          -0.391845          -10.66265
    710       2.00000          -0.391845          -10.66264
    711       2.00000          -0.391845          -10.66264
    712       2.00000          -0.388774          -10.57908
    713       2.00000          -0.388755          -10.57857
    714       2.00000          -0.388749          -10.57839
    715       2.00000          -0.388748          -10.57837
    716       2.00000          -0.388746          -10.57833
    717       2.00000          -0.388742          -10.57821
    718       2.00000          -0.388741          -10.57817
    719       2.00000          -0.388740          -10.57816
    720       2.00000          -0.388740          -10.57814
    721       2.00000          -0.388740          -10.57814
    722       2.00000          -0.388740          -10.57814
    723       2.00000          -0.388740          -10.57814
    724       2.00000          -0.388740          -10.57814
    725       2.00000          -0.388740          -10.57814
    726       2.00000          -0.388740          -10.57814
    727       2.00000          -0.388739          -10.57814
    728       2.00000          -0.388739          -10.57812
    729       2.00000          -0.388738          -10.57811
    730       2.00000          -0.388737          -10.57807
    731       2.00000          -0.388733          -10.57796
    732       2.00000          -0.388731          -10.57792
    733       2.00000          -0.388731          -10.57790
    734       2.00000          -0.388724          -10.57771
    735       2.00000          -0.388706          -10.57722
    736       2.00000          -0.384987          -10.47602
    737       2.00000          -0.384984          -10.47596
    738       2.00000          -0.384984          -10.47593
    739       2.00000          -0.384981          -10.47587
    740       2.00000          -0.384980          -10.47584
    741       2.00000          -0.384978          -10.47580
    742       2.00000          -0.384978          -10.47579
    743       2.00000          -0.384977          -10.47575
    744       2.00000          -0.384976          -10.47572
    745       2.00000          -0.384973          -10.47566
    746       2.00000          -0.384973          -10.47564
    747       2.00000          -0.384970          -10.47557
    748       2.00000          -0.376803          -10.25332
    749       2.00000          -0.376802          -10.25330
    750       2.00000          -0.376800          -10.25324
    751       2.00000          -0.376799          -10.25322
    752       2.00000          -0.376795          -10.25312
    753       2.00000          -0.376795          -10.25312
    754       2.00000          -0.376795          -10.25312
    755       2.00000          -0.376795          -10.25311
    756       2.00000          -0.376791          -10.25302
    757       2.00000          -0.376790          -10.25299
    758       2.00000          -0.376788          -10.25293
    759       2.00000          -0.376788          -10.25292
    760       2.00000          -0.373782          -10.17112
    761       2.00000          -0.373779          -10.17105
    762       2.00000          -0.373775          -10.17094
    763       2.00000          -0.373775          -10.17094
    764       2.00000          -0.373775          -10.17094
    765       2.00000          -0.373775          -10.17093
    766       2.00000          -0.373771          -10.17083
    767       2.00000          -0.373768          -10.17075
    768       2.00000          -0.372931          -10.14796
    769       2.00000          -0.372929          -10.14791
    770       2.00000          -0.372928          -10.14787
    771       2.00000          -0.372927          -10.14787
    772       2.00000          -0.372926          -10.14783
    773       2.00000          -0.372924          -10.14779
    774       2.00000          -0.364394           -9.91566
    775       2.00000          -0.364394           -9.91566
    776       2.00000          -0.364392           -9.91562
    777       2.00000          -0.364391           -9.91558
    778       2.00000          -0.364391           -9.91557
    779       2.00000          -0.364390           -9.91556
    780       2.00000          -0.364390           -9.91556
    781       2.00000          -0.364390           -9.91556
    782       2.00000          -0.364390           -9.91556
    783       2.00000          -0.364389           -9.91554
    784       2.00000          -0.364388           -9.91549
    785       2.00000          -0.364387           -9.91547
    786       2.00000          -0.363694           -9.89662
    787       2.00000          -0.363691           -9.89654
    788       2.00000          -0.363684           -9.89636
    789       2.00000          -0.363683           -9.89633
    790       2.00000          -0.363682           -9.89629
    791       2.00000          -0.363680           -9.89623
    792       2.00000          -0.363676           -9.89612
    793       2.00000          -0.363676           -9.89612
    794       2.00000          -0.363673           -9.89606
    795       2.00000          -0.363673           -9.89605
    796       2.00000          -0.363673           -9.89605
    797       2.00000          -0.363673           -9.89605
    798       2.00000          -0.363673           -9.89605
    799       2.00000          -0.363673           -9.89605
    800       2.00000          -0.363673           -9.89605
    801       2.00000          -0.363673           -9.89604
    802       2.00000          -0.363671           -9.89598
    803       2.00000          -0.363670           -9.89598
    804       2.00000          -0.363667           -9.89587
    805       2.00000          -0.363664           -9.89580
    806       2.00000          -0.363663           -9.89577
    807       2.00000          -0.363662           -9.89574
    808       2.00000          -0.363655           -9.89556
    809       2.00000          -0.363652           -9.89547
    810       2.00000          -0.363173           -9.88243
    811       2.00000          -0.363172           -9.88240
    812       2.00000          -0.363170           -9.88237
    813       2.00000          -0.363170           -9.88236
    814       2.00000          -0.363169           -9.88233
    815       2.00000          -0.363168           -9.88230
    816       2.00000          -0.358676           -9.76008
    817       2.00000          -0.358676           -9.76008
    818       2.00000          -0.358676           -9.76008
    819       2.00000          -0.358676           -9.76008
    820       2.00000          -0.358676           -9.76008
    821       2.00000          -0.358676           -9.76008
    822       2.00000          -0.353815           -9.62779
    823       2.00000          -0.353805           -9.62754
    824       2.00000          -0.353804           -9.62749
    825       2.00000          -0.353801           -9.62741
    826       2.00000          -0.353796           -9.62727
    827       2.00000          -0.353792           -9.62718
    828       2.00000          -0.353789           -9.62710
    829       2.00000          -0.353789           -9.62710
    830       2.00000          -0.353789           -9.62710
    831       2.00000          -0.353789           -9.62710
    832       2.00000          -0.353789           -9.62710
    833       2.00000          -0.353789           -9.62710
    834       2.00000          -0.353789           -9.62710
    835       2.00000          -0.353789           -9.62710
    836       2.00000          -0.353789           -9.62710
    837       2.00000          -0.353789           -9.62710
    838       2.00000          -0.353789           -9.62710
    839       2.00000          -0.353789           -9.62710
    840       2.00000          -0.353786           -9.62702
    841       2.00000          -0.353783           -9.62693
    842       2.00000          -0.353778           -9.62679
    843       2.00000          -0.353775           -9.62671
    844       2.00000          -0.353773           -9.62666
    845       2.00000          -0.353764           -9.62642
    846       2.00000          -0.350025           -9.52467
[...]
   1017       0.00000           0.071998            1.95917
   1018       0.00000           0.071998            1.95917
   1019       0.00000           0.072001            1.95925
   1020       0.00000           0.072002            1.95928
   1021       0.00000           0.072005            1.95937
   1022       0.00000           0.072028            1.95999
   1023       0.00000           0.072034            1.96016
   1024       0.00000           0.072847            1.98226
   1025       0.00000           0.072863            1.98271
   1026       0.00000           0.072865            1.98275
   1027       0.00000           0.072866            1.98278
   1028       0.00000           0.072867            1.98282
   1029       0.00000           0.072886            1.98333
   1030       0.00000           0.076338            2.07727
   1031       0.00000           0.076348            2.07754
   1032       0.00000           0.076373            2.07823
   1033       0.00000           0.076375            2.07827
   1034       0.00000           0.076376            2.07830
   1035       0.00000           0.076385            2.07854
   1036       0.00000           0.076385            2.07854
   1037       0.00000           0.076386            2.07858
   1038       0.00000           0.076387            2.07861
   1039       0.00000           0.076388            2.07861
   1040       0.00000           0.076391            2.07869
   1041       0.00000           0.076391            2.07869
   1042       0.00000           0.076391            2.07870
   1043       0.00000           0.076391            2.07870
   1044       0.00000           0.076394            2.07878
   1045       0.00000           0.076394            2.07879
   1046       0.00000           0.076395            2.07881
   1047       0.00000           0.076396            2.07885
   1048       0.00000           0.076396            2.07885
   1049       0.00000           0.076405            2.07908
   1050       0.00000           0.076406            2.07912
   1051       0.00000           0.076408            2.07917
   1052       0.00000           0.076435            2.07989
   1053       0.00000           0.076445            2.08017
   1054       0.00000           0.079108            2.15263
   1055       0.00000           0.079108            2.15263
   1056       0.00000           0.079108            2.15264
   1057       0.00000           0.079108            2.15264
   1058       0.00000           0.086757            2.36077
   1059       0.00000           0.086760            2.36085
   1060       0.00000           0.086778            2.36136
   1061       0.00000           0.086779            2.36136
   1062       0.00000           0.086779            2.36137
   1063       0.00000           0.086779            2.36137
   1064       0.00000           0.086798            2.36189
   1065       0.00000           0.086801            2.36198
   1066       0.00000           0.098850            2.68984
   1067       0.00000           0.098852            2.68989
   1068       0.00000           0.098856            2.69000
   1069       0.00000           0.098856            2.69000
   1070       0.00000           0.098860            2.69011
   1071       0.00000           0.098862            2.69017
   1072       0.00000           0.115344            3.13866
   1073       0.00000           0.115344            3.13867
   1074       0.00000           0.115344            3.13867
   1075       0.00000           0.115344            3.13867
   1076       0.00000           0.115344            3.13867
   1077       0.00000           0.115344            3.13867
   1078       0.00000           0.115344            3.13867
   1079       0.00000           0.115344            3.13868
   1080       0.00000           0.115753            3.14979
   1081       0.00000           0.115753            3.14980
   1082       0.00000           0.115753            3.14980
   1083       0.00000           0.117444            3.19581
   1084       0.00000           0.117446            3.19588
   1085       0.00000           0.117449            3.19595
   1086       0.00000           0.117449            3.19595
   1087       0.00000           0.117452            3.19603
   1088       0.00000           0.117454            3.19609


  Self-consistency cycle converged.

  End self-consistency iteration #    17  :  max(cpu_time)   wall_clock_time(cpu1)
  Time for this iteration                 :     2028.360 s        2034.400 s
  Charge density & force component update :     1748.060 s        1753.483 s
  Density mixing                          :        0.350 s           0.341 s
  Hartree multipole update                :        0.370 s           0.366 s
  Hartree multipole summation             :      176.380 s         176.498 s
  Integration                             :       96.040 s          96.166 s
  Solution of K.-S. eqns.                 :        7.910 s           6.939 s
  Total energy evaluation                 :        0.010 s           0.004 s
------------------------------------------------------------
 
  Energy and forces in a compact form:
  | Total energy uncorrected      :         -0.108838624571968E+07 eV
  | Total energy corrected        :         -0.108838624571968E+07 eV
  | Free energy                   :         -0.108838624571968E+07 eV
  Total atomic forces (unitary forces cleaned) [eV/Ang]:
  |   1          0.536367434495321E-05         -0.132256612433990E-01         -0.132260823400475E-01
  |   2         -0.177871593321259E-04          0.172972034730386E-02          0.172507551411326E-02
  |   3         -0.289073661349965E-04          0.368833282997346E-03          0.356193372105563E-03
  |   4         -0.582658269171794E-05          0.171224970624407E-02          0.170759679928316E-02
  |   5          0.150284025367358E-02         -0.467674294776503E-03          0.219273745600844E-03
  |   6          0.145512980955764E-03          0.173994583238343E-03          0.316126162399995E-03
  |   7         -0.158671713096019E-03          0.323314895558095E-03          0.163161786738218E-03
  |   8         -0.148633148181520E-02          0.222304957877886E-03         -0.469859511207943E-03
  |   9          0.312454603411081E-03         -0.551785459014896E-04          0.496633017167074E-04
  |  10          0.386957062378664E-05          0.622173690657648E-05          0.151112372776071E-05
  |  11         -0.305708442177274E-03          0.548801000998774E-04         -0.582591986191261E-04
  |  12          0.536602096942771E-05          0.604384292626092E-05         -0.355783092250297E-06
  |  13          0.149733691032207E-02         -0.471047653889428E-03          0.221631048021341E-03
  |  14         -0.150218427380768E-02          0.221344798777747E-03         -0.478225142745411E-03
  |  15         -0.175523402076227E-03          0.332917593829500E-03          0.162153778061526E-03
  |  16          0.175283110223077E-03          0.172921119093194E-03          0.318984398600046E-03
  |  17          0.149848828563536E-02          0.220062191201816E-03         -0.468540241355146E-03
  |  18          0.148523875892006E-03          0.324961952521072E-03          0.171028369444793E-03
  |  19         -0.163323649784345E-03          0.168585206962277E-03          0.314947183650335E-03
  |  20         -0.149805444866844E-02         -0.469680943950718E-03          0.219338966420684E-03
  |  21          0.337615229686146E-03         -0.677968624369596E-05         -0.609320129457497E-05
  |  22          0.288951633174172E-06          0.520192905685556E-04          0.618561110546922E-04
  |  23         -0.336740226638468E-03         -0.823388265646225E-05         -0.800596282088127E-05
  |  24         -0.921624148190130E-06         -0.246881643993296E-04         -0.143786523621981E-04
  |  25          0.167045898852520E-03         -0.169322231235370E-03         -0.130799607166391E-04
  |  26         -0.156492561070911E-03         -0.126416270940338E-04         -0.172389650490057E-03
  |  27         -0.685792535280218E-04          0.191217532621065E-03         -0.105835383669245E-04
  |  28          0.542041734844098E-04          0.124176896618874E-03          0.200104952420547E-03
  |  29          0.157659463854331E-04         -0.127871840015786E-02         -0.127572502402752E-02
  |  30          0.100539885683732E-04          0.108937187519601E-02         -0.144882806672154E-04
  |  31         -0.902378151830283E-05          0.288417916491556E-03          0.230447967136460E-03
  |  32         -0.313012529791259E-05         -0.319741191557607E-04          0.107998172923531E-02
  |  33          0.307781731047045E-03          0.552050609959349E-04         -0.517509997513950E-04
  |  34         -0.276558822202182E-05          0.400671107868305E-05          0.371081130981876E-05
  |  35         -0.312459643826815E-03         -0.621775712620581E-04          0.498330612728624E-04
  |  36         -0.450852279578457E-05          0.170041913340492E-05          0.396665538101926E-05
  |  37          0.167300101145466E-03         -0.109044670514293E-04         -0.168583268617521E-03
  |  38         -0.156719911309444E-03         -0.174555932366454E-03         -0.144963125725202E-04
  |  39         -0.608311473102716E-04          0.716637932783170E-04          0.194953622175526E-03
  |  40          0.896093802286069E-04          0.190539949693092E-03         -0.473668183830938E-04
  |  41          0.300210126030116E-04         -0.255340744021100E-03         -0.254678001971416E-03
  |  42          0.325199377604953E-04          0.100245375010613E-03          0.152614877134049E-03
  |  43          0.406843937784732E-05          0.884690215524640E-04         -0.269277127281335E-03
  |  44          0.165286633954324E-05          0.137535173902488E-03          0.133724401619101E-03
  |  45          0.191162749775726E-03         -0.209263841893171E-04         -0.169037123938902E-03
  |  46          0.744532947351625E-04          0.191069672460360E-03         -0.251319555139328E-04
  |  47         -0.469921232246987E-04          0.126414289439800E-03          0.199457960086819E-03
  |  48         -0.181201413469364E-03         -0.176121956630630E-03         -0.194818584211474E-04
  |  49          0.150435219101057E-02          0.223290385125347E-03         -0.468361212710573E-03
  |  50         -0.150243916837727E-02         -0.481351084771818E-03          0.217267893806145E-03
  |  51         -0.191095118247924E-03          0.167271676025585E-03          0.320335857165310E-03
  |  52          0.167407325099249E-03          0.332019059134161E-03          0.170105640240446E-03
  |  53          0.196613138205157E-04         -0.127536556341374E-02         -0.127907337773741E-02
  |  54          0.445101607641047E-05         -0.283330208102985E-04          0.107994408543344E-02
  |  55         -0.158804477235181E-04          0.280252472001274E-03          0.236684081145396E-03
  |  56         -0.688069268537714E-06          0.109007586009447E-02         -0.173667260743756E-04
  |  57          0.192708436600119E-03         -0.170131086589902E-03         -0.210633594662397E-04
  |  58          0.640553395277227E-04          0.547094364130629E-04          0.193893835043599E-03
  |  59         -0.814264897689490E-04          0.189672689880682E-03         -0.400487679830916E-04
  |  60         -0.178864803411641E-03         -0.199373999123067E-04         -0.173858187422426E-03
  |  61          0.345231960137241E-03         -0.519867337475259E-05         -0.495896640900148E-05
  |  62          0.288616150838271E-05         -0.229729682750043E-04         -0.127801324143154E-04
  |  63         -0.344233770942253E-03         -0.998043924576060E-05         -0.102335894400877E-04
  |  64         -0.164920866090950E-05          0.542339925576465E-04          0.646805626073252E-04
  |  65         -0.766164723344326E-03         -0.343568700923718E-03         -0.346820902669549E-03
  |  66          0.654675406254080E-05         -0.237331194936473E-03         -0.209336468289887E-03
  |  67          0.758087780640943E-03         -0.353032134500853E-03         -0.364466829228604E-03
  |  68         -0.806264229625944E-05          0.138932437679356E-02          0.138354245513634E-02
  |  69         -0.148835959163415E-03         -0.261943766309815E-05         -0.708490533279045E-04
  |  70          0.135007818454316E-03         -0.815869033033436E-04          0.289680822654645E-05
  |  71          0.186707465521740E-03          0.177697868617249E-04          0.726774266083191E-04
  |  72         -0.164958458033148E-03          0.729844482569854E-04          0.165226140792700E-04
  |  73          0.357245501601180E-05          0.410327666548359E-03          0.399768826631994E-03
  |  74          0.395701494536581E-03         -0.332585381461944E-03          0.614580192580511E-04
  |  75         -0.403856509625225E-04         -0.135635569854266E-03         -0.840404029375745E-04
  |  76         -0.380885682053717E-03          0.612682318666901E-04         -0.352486195099149E-03
  |  77          0.497942530626575E-04          0.357340226274951E-02          0.138144767162534E-02
  |  78          0.483133523665959E-03         -0.502491354854744E-03         -0.372877430635362E-03
  |  79          0.888369265173785E-04         -0.356020279261683E-03         -0.549122991714482E-03
  |  80         -0.537724674801925E-04          0.138747822366172E-02          0.337346134424622E-02
  |  81         -0.135981800275773E-03         -0.819803051754814E-04         -0.166047071533997E-05
  |  82          0.148082735952412E-03          0.172399203379919E-05         -0.703506430094890E-04
  |  83          0.166803420456632E-03          0.695074846986114E-04          0.146092132237639E-04
  |  84         -0.182570521959540E-03          0.196365082756094E-04          0.834256541478349E-04
  |  85         -0.489747656076282E-05          0.657825850674642E-04          0.651068834346276E-04
  |  86          0.928902976441359E-04          0.231113601734487E-05         -0.813003000496442E-05
  |  87          0.908596300759808E-05         -0.360983466068134E-03          0.124371803406098E-03
  |  88         -0.893078823454818E-04         -0.683705588224864E-05         -0.166372613297877E-04
  |  89         -0.696206437286782E-03         -0.172819912379283E-03          0.406784133465107E-03
  |  90         -0.388991227655489E-03         -0.170268083994644E-03          0.173943998834408E-03
  |  91          0.165286311241110E-03         -0.523521207832852E-03         -0.109463799740621E-03
  |  92         -0.268683174232537E-04          0.403041046019747E-03         -0.163382516335657E-03
  |  93         -0.391018016324062E-03         -0.345856671466753E-03          0.102973517275400E-03
  |  94          0.440747786891755E-04         -0.138413868256480E-03         -0.965824456964314E-04
  |  95          0.378939930358173E-03          0.671084297368547E-04         -0.357614789473359E-03
  |  96         -0.141343221980254E-05          0.386872803727886E-03          0.397518669654290E-03
  |  97          0.181506655693126E-05          0.400039946145987E-03          0.405292568697063E-03
  |  98          0.382939797738437E-03          0.427633404798980E-04         -0.351413249270259E-03
  |  99          0.397462563696369E-04         -0.133129613168417E-03         -0.841012946219098E-04
  | 100         -0.389465811951074E-03         -0.330463143023380E-03          0.767651387599012E-04
  | 101         -0.699596422782919E-03          0.402925506877950E-03         -0.168292813697682E-03
  | 102         -0.262027259844706E-03         -0.409329308259058E-03         -0.943244151051459E-04
  | 103          0.237160594019270E-03         -0.183939198873146E-03          0.689539768355229E-04
  | 104         -0.752673596954033E-04         -0.168495603517363E-03          0.406883640703430E-03
  | 105         -0.105839163479788E-03          0.435975327300924E-05         -0.534228354690823E-05
  | 106         -0.113229862177157E-04         -0.277730932842334E-03          0.181836026545842E-03
  | 107          0.866032496809710E-04          0.451595113233225E-05         -0.549602263808571E-05
  | 108         -0.828207117307976E-05          0.588117874720872E-04          0.583795035221543E-04
  | 109         -0.175272842222961E-03          0.189249017584296E-04          0.780420918551874E-04
  | 110          0.163066019330069E-03          0.666550251675416E-04          0.167304851887469E-04
  | 111          0.145090134639945E-03          0.208241027410535E-05         -0.698857450087378E-04
  | 112         -0.133381801514049E-03         -0.812323253276337E-04         -0.611720011487065E-07
  | 113          0.362415396904390E-05          0.138068909198081E-02          0.356541175458310E-02
  | 114          0.769399822873412E-03         -0.356937913381090E-03         -0.542869063448557E-03
  | 115          0.140205556885604E-03         -0.508219353545624E-03         -0.372173867962944E-03
  | 116         -0.326482321018680E-03          0.338159011482126E-02          0.138840801092906E-02
  | 117         -0.383228524765381E-03          0.952449320791283E-04         -0.358473769348131E-03
  | 118         -0.334683059257294E-04         -0.144762082529392E-03         -0.878265788566115E-04
  | 119          0.391595365977939E-03         -0.348170127586875E-03          0.788941063321856E-04
  | 120          0.787572359966284E-05          0.397638411375834E-03          0.391430235125182E-03
  | 121         -0.161540471666552E-03          0.752480580062801E-04          0.153836280386696E-04
  | 122          0.178858323893835E-03          0.207918910866536E-04          0.771404228531357E-04
  | 123          0.132072609138437E-03         -0.812172256870026E-04          0.300947700750953E-05
  | 124         -0.146100297844243E-03         -0.128690357707831E-05         -0.699994251856158E-04
  | 125          0.116915552136285E-04          0.137705843979517E-02          0.138325219525278E-02
  | 126          0.746836656885897E-03         -0.361371377107993E-03         -0.373155378475759E-03
  | 127          0.517897603499600E-05         -0.227065881840080E-03         -0.200247557335819E-03
  | 128         -0.745570724878214E-03         -0.352277379995890E-03         -0.355831666198399E-03
 

------------------------------------------------------------
          Leaving FHI-aims.
          Date     :  20091203, Time     :  020531.027

          Computational steps:
          | Number of self-consistency cycles          :           17

          Detailed time accounting                     :  max(cpu_time)   wall_clock_time(cpu1)
          | Total time                                 :     8306.850 s        8368.307 s
          | Preparation time                           :        0.840 s           0.838 s
          | Grid partitioning                          :       51.670 s          51.694 s
          | Preloading free-atom quantities on grid    :       61.150 s          61.254 s
          | Free-atom superposition energy             :       52.160 s          52.140 s
          | Total time for integrations                :     1813.320 s        1818.691 s
          | Total time for solution of K.-S. equations :      132.340 s         125.507 s
          | Total time for density & force components  :     4806.260 s        4837.997 s
          | Total time for mixing                      :        4.380 s           4.441 s
          | Total time for Hartree multipole update    :        6.300 s           6.275 s
          | Total time for Hartree multipole sum       :     1394.700 s        1396.963 s
          | Total time for total energy evaluation     :        0.020 s           0.020 s
          | Total time for scaled ZORA corrections     :        0.000 s           0.000 s

          Have a nice day.
------------------------------------------------------------
