# epsilon and Z* of atoms 1 5
   2.48000821   0.00000000   0.00000000   0.00000000   2.48000821   0.00000000   0.00000000   0.00000000   2.48000821
   1.10382408   0.00000000   0.00000000   0.00000000   1.10382408   0.00000000   0.00000000   0.00000000   1.10382408
  -1.10382408   0.00000000   0.00000000   0.00000000  -1.10382408   0.00000000   0.00000000   0.00000000  -1.10382408
