64
2

1
  0.0100000000000000   0.0000000000000000   0.0000000000000000
  -0.0184957900    0.0000000000   -0.0000000000
   0.0029818900    0.0000000000   -0.0000000000
  -0.0000280900    0.0000000000   -0.0000000000
   0.0001172800    0.0000000000   -0.0000000000
  -0.0000280900    0.0000000000   -0.0000000000
   0.0001172800    0.0000000000   -0.0000000000
  -0.0001465300    0.0000000000   -0.0000000000
   0.0001486800    0.0000000000   -0.0000000000
  -0.0005592700   -0.0000021100   -0.0000021100
   0.0003963000    0.0000005000    0.0000005000
  -0.0005592700    0.0000021100   -0.0000021100
   0.0003963000   -0.0000005000    0.0000005000
  -0.0005592700   -0.0000021100    0.0000021100
   0.0003963000    0.0000005000   -0.0000005000
  -0.0005592700    0.0000021100    0.0000021100
   0.0003963000   -0.0000005000   -0.0000005000
   0.0004945900    0.0000000000    0.0019373500
   0.0004939800    0.0000000000   -0.0019238000
  -0.0000055400    0.0000000000   -0.0000191500
  -0.0000046700    0.0000000000    0.0000190400
   0.0004945900    0.0000000000   -0.0019373500
   0.0004939800    0.0000000000    0.0019238000
  -0.0000055400    0.0000000000    0.0000191500
  -0.0000046700    0.0000000000   -0.0000190400
   0.0004945900    0.0019373500   -0.0000000000
   0.0004939800   -0.0019238000   -0.0000000000
   0.0004945900   -0.0019373500   -0.0000000000
   0.0004939800    0.0019238000   -0.0000000000
  -0.0000055400   -0.0000191500   -0.0000000000
  -0.0000046700    0.0000190400   -0.0000000000
  -0.0000055400    0.0000191500   -0.0000000000
  -0.0000046700   -0.0000190400   -0.0000000000
  -0.0000631700   -0.0004240900   -0.0004240900
  -0.0000784800    0.0004147000    0.0004147000
  -0.0000631700    0.0004240900   -0.0004240900
  -0.0000784800   -0.0004147000    0.0004147000
  -0.0000631700   -0.0004240900    0.0004240900
  -0.0000784800    0.0004147000   -0.0004147000
  -0.0000631700    0.0004240900    0.0004240900
  -0.0000784800   -0.0004147000   -0.0004147000
   0.0048471200    0.0000000000   -0.0000000000
   0.0044472900    0.0000000000   -0.0000000000
   0.0000322400    0.0000000000   -0.0000000000
   0.0000764000    0.0000000000   -0.0000000000
   0.0000322400    0.0000000000   -0.0000000000
   0.0000764000    0.0000000000   -0.0000000000
   0.0000128000    0.0000000000   -0.0000000000
  -0.0000261600    0.0000000000   -0.0000000000
   0.0017275800   -0.0000006800   -0.0000000000
  -0.0009441400   -0.0000133100   -0.0000000000
   0.0017275800    0.0000006800   -0.0000000000
  -0.0009441400    0.0000133100   -0.0000000000
   0.0002159300    0.0000037600   -0.0000000000
  -0.0002143300    0.0000329300   -0.0000000000
   0.0002159300   -0.0000037600   -0.0000000000
  -0.0002143300   -0.0000329300   -0.0000000000
   0.0017275800    0.0000000000   -0.0000006800
  -0.0009441400    0.0000000000   -0.0000133100
   0.0002159300    0.0000000000    0.0000037600
  -0.0002143300    0.0000000000    0.0000329300
   0.0017275800    0.0000000000    0.0000006800
  -0.0009441400    0.0000000000    0.0000133100
   0.0002159300    0.0000000000   -0.0000037600
  -0.0002143300    0.0000000000   -0.0000329300

33
  0.0100000000000000   0.0000000000000000   0.0000000000000000
  -0.0000700100   -0.0004277100   -0.0004277100
  -0.0000677900    0.0004285600    0.0004285600
  -0.0000700100    0.0004277100   -0.0004277100
  -0.0000677900   -0.0004285600    0.0004285600
  -0.0000700100   -0.0004277100    0.0004277100
  -0.0000677900    0.0004285600   -0.0004285600
  -0.0000700100    0.0004277100    0.0004277100
  -0.0000677900   -0.0004285600   -0.0004285600
   0.0044440000   -0.0000000000    0.0000000000
   0.0048388900   -0.0000000000    0.0000000000
   0.0000513100   -0.0000000000    0.0000000000
   0.0000532900    0.0000000000    0.0000000000
   0.0000513100    0.0000000000    0.0000000000
   0.0000532900   -0.0000000000    0.0000000000
   0.0000008600    0.0000000000    0.0000000000
   0.0000021900    0.0000000000    0.0000000000
   0.0017381100    0.0000071800    0.0000000000
  -0.0009514400    0.0000003700    0.0000000000
   0.0017381100   -0.0000071800    0.0000000000
  -0.0009514400   -0.0000003700    0.0000000000
   0.0002083800    0.0000002300    0.0000000000
  -0.0002242000    0.0000003300    0.0000000000
   0.0002083800   -0.0000002300    0.0000000000
  -0.0002242000   -0.0000003300    0.0000000000
   0.0017381100   -0.0000000000    0.0000071800
  -0.0009514400    0.0000000000    0.0000003700
   0.0002083800    0.0000000000    0.0000002300
  -0.0002242000    0.0000000000    0.0000003300
   0.0017381100   -0.0000000000   -0.0000071800
  -0.0009514400    0.0000000000   -0.0000003700
   0.0002083800   -0.0000000000   -0.0000002300
  -0.0002242000    0.0000000000   -0.0000003300
  -0.0233815000   -0.0000000000    0.0000000000
   0.0013096800   -0.0000000000    0.0000000000
  -0.0005183000   -0.0000000000    0.0000000000
   0.0006495700    0.0000000000    0.0000000000
  -0.0005183000    0.0000000000    0.0000000000
   0.0006495700    0.0000000000    0.0000000000
  -0.0001693300    0.0000000000    0.0000000000
   0.0001772800    0.0000000000    0.0000000000
  -0.0008031000    0.0000035800    0.0000035800
   0.0005194700   -0.0000002800   -0.0000002800
  -0.0008031000   -0.0000035800    0.0000035800
   0.0005194700    0.0000002800   -0.0000002800
  -0.0008031000    0.0000035800   -0.0000035800
   0.0005194700   -0.0000002800    0.0000002800
  -0.0008031000   -0.0000035800   -0.0000035800
   0.0005194700    0.0000002800    0.0000002800
   0.0013744700    0.0000000000    0.0020515200
   0.0013793700   -0.0000000000   -0.0020702900
  -0.0000122600   -0.0000000000    0.0001920400
  -0.0000144600    0.0000000000   -0.0001928700
   0.0013744700   -0.0000000000   -0.0020515200
   0.0013793700   -0.0000000000    0.0020702900
  -0.0000122600    0.0000000000   -0.0001920400
  -0.0000144600    0.0000000000    0.0001928700
   0.0013744700    0.0020515200    0.0000000000
   0.0013793700   -0.0020702900    0.0000000000
   0.0013744700   -0.0020515200    0.0000000000
   0.0013793700    0.0020702900    0.0000000000
  -0.0000122600    0.0001920400    0.0000000000
  -0.0000144600   -0.0001928700    0.0000000000
  -0.0000122600   -0.0001920400    0.0000000000
  -0.0000144600    0.0001928700    0.0000000000
