calculator: abacus
length_unit: au
nqpoint: 84
npath: 4
segment_nqpoint:
- 21
- 21
- 21
- 21
reciprocal_lattice:
- [  -0.13082417,   0.13082417,   0.13082417 ] # a*
- [   0.13082417,  -0.13082417,   0.13082417 ] # b*
- [   0.13082417,   0.13082417,  -0.13082417 ] # c*
natom: 1
lattice:
- [     0.000000000000000,     3.821923845585321,     3.821923845585321 ] # a
- [     3.821923845585321,     0.000000000000000,     3.821923845585321 ] # b
- [     3.821923845585321,     3.821923845585321,     0.000000000000000 ] # c
points:
- symbol: Al # 1
  coordinates: [  0.000000000000000,  0.000000000000000,  0.000000000000000 ]
  mass: 26.981539
  magnetic_moment: 0.00000000

phonon:
- q-position: [    1.0000000,    1.0000000,    1.0000000 ]
  distance:    0.0000000
  band:
  - # 1
    frequency:   -0.0002925512
    eigenvector:
    - # atom 1
      - [  0.00000000000000,  0.00000000000000 ]
      - [  0.00000010050180,  0.99987801157974 ]
      - [  0.00000000000000, -0.01561928165243 ]
  - # 2
    frequency:   -0.0002925512
    eigenvector:
    - # atom 1
      - [ -0.00000000000000,  0.00000000000000 ]
      - [ -0.00000000156996, -0.01561928165243 ]
      - [  0.00000000000000, -0.99987801157974 ]
  - # 3
    frequency:   -0.0002925512
    eigenvector:
    - # atom 1
      - [  1.00000000000000,  0.00000000000000 ]
      - [  0.00000000000000,  0.00000000000000 ]
      - [  0.00000000000000,  0.00000000000000 ]

- q-position: [    0.9750000,    0.9750000,    1.0000000 ]
  distance:    0.0065412
  band:
  - # 1
    frequency:    0.4581593702
    eigenvector:
    - # atom 1
      - [  0.04447646660454,  0.00000000000000 ]
      - [  0.99901043233711,  0.00000000000000 ]
      - [ -0.00000000000000,  0.00000000000000 ]
  - # 2
    frequency:    0.9107488676
    eigenvector:
    - # atom 1
      - [  0.00000000000000,  0.00000000000000 ]
      - [  0.00000000000000,  0.00000000000000 ]
      - [  1.00000000000000,  0.00000000000000 ]
  - # 3
    frequency:    0.4581593702
    eigenvector:
    - # atom 1
      - [  0.99901043233711,  0.00000000000000 ]
      - [ -0.04447646660454,  0.00000000000000 ]
      - [  0.00000000000000,  0.00000000000000 ]

- q-position: [    0.9500000,    0.9500000,    1.0000000 ]
  distance:    0.0130824
  band:
  - # 1
    frequency:    0.9132851726
    eigenvector:
    - # atom 1
      - [ -0.06278252073386,  0.00000000000000 ]
      - [  0.99802723163765, -0.00000000000000 ]
      - [  0.00000000000000, -0.00000000000000 ]
  - # 2
    frequency:    1.8116110350
    eigenvector:
    - # atom 1
      - [  0.00000000000000,  0.00000000000000 ]
      - [  0.00000000000000,  0.00000000000000 ]
      - [ -0.99227787671367, -0.12403473458921 ]
  - # 3
    frequency:    0.9132851726
    eigenvector:
    - # atom 1
      - [  0.99802723163765,  0.00000000000000 ]
      - [  0.06278252073386, -0.00000000000000 ]
      - [  0.00000000000000,  0.00000000000000 ]

- q-position: [    0.9250000,    0.9250000,    1.0000000 ]
  distance:    0.0196236
  band:
  - # 1
    frequency:    1.3623736273
    eigenvector:
    - # atom 1
      - [  0.04885461905416,  0.00000000000000 ]
      - [  0.99880590016132, -0.00000000000000 ]
      - [ -0.00000000000000,  0.00000000000000 ]
  - # 2
    frequency:    2.6929640133
    eigenvector:
    - # atom 1
      - [ -0.00000000000000,  0.00000000000000 ]
      - [ -0.00000000000000,  0.00000000000000 ]
      - [ -0.99987795203470,  0.01562309300054 ]
  - # 3
    frequency:    1.3623736273
    eigenvector:
    - # atom 1
      - [  0.99880590016132,  0.00000000000000 ]
      - [ -0.04885461905416,  0.00000000000000 ]
      - [ -0.00000000000000,  0.00000000000000 ]

- q-position: [    0.9000000,    0.9000000,    1.0000000 ]
  distance:    0.0261648
  band:
  - # 1
    frequency:    1.8024805544
    eigenvector:
    - # atom 1
      - [ -0.01062072794351,  0.00000000000000 ]
      - [  0.99994359847841,  0.00000000000000 ]
      - [ -0.00000000000000,  0.00000000000000 ]
  - # 2
    frequency:    3.5457052352
    eigenvector:
    - # atom 1
      - [  0.00000000000000,  0.00000000000000 ]
      - [  0.00000000000000,  0.00000000000000 ]
      - [  1.00000000000000,  0.00000000000000 ]
  - # 3
    frequency:    1.8024805544
    eigenvector:
    - # atom 1
      - [  0.99994359847841,  0.00000000000000 ]
      - [  0.01062072794351,  0.00000000000000 ]
      - [ -0.00000000000000,  0.00000000000000 ]

- q-position: [    0.8750000,    0.8750000,    1.0000000 ]
  distance:    0.0327060
  band:
  - # 1
    frequency:    2.2307489179
    eigenvector:
    - # atom 1
      - [  0.00000000000000,  0.00000000000000 ]
      - [ -1.00000000000000,  0.00000000000000 ]
      - [  0.00000000000000,  0.00000000000000 ]
  - # 2
    frequency:    4.3614896713
    eigenvector:
    - # atom 1
      - [ -0.00000000000000,  0.00000000000000 ]
      - [  0.00000000000000,  0.00000000000000 ]
      - [ -1.00000000000000,  0.00000000000000 ]
  - # 3
    frequency:    2.2307489179
    eigenvector:
    - # atom 1
      - [ -1.00000000000000,  0.00000000000000 ]
      - [  0.00000000000000,  0.00000000000000 ]
      - [  0.00000000000000,  0.00000000000000 ]

- q-position: [    0.8500000,    0.8500000,    1.0000000 ]
  distance:    0.0392472
  band:
  - # 1
    frequency:    2.6444343609
    eigenvector:
    - # atom 1
      - [  0.04577454582936,  0.00000000000000 ]
      - [  0.99895179611136,  0.00000000000000 ]
      - [ -0.00000000000000,  0.00000000000000 ]
  - # 2
    frequency:    5.1329411911
    eigenvector:
    - # atom 1
      - [  0.00000000000000,  0.00000000000000 ]
      - [  0.00000000000000,  0.00000000000000 ]
      - [  1.00000000000000,  0.00000000000000 ]
  - # 3
    frequency:    2.6444343609
    eigenvector:
    - # atom 1
      - [  0.99895179611136,  0.00000000000000 ]
      - [ -0.04577454582936,  0.00000000000000 ]
      - [ -0.00000000000000,  0.00000000000000 ]

- q-position: [    0.8250000,    0.8250000,    1.0000000 ]
  distance:    0.0457885
  band:
  - # 1
    frequency:    3.0409279003
    eigenvector:
    - # atom 1
      - [  0.00000000000000,  0.00000000000000 ]
      - [ -1.00000000000000,  0.00000000000000 ]
      - [  0.00000000000000,  0.00000000000000 ]
  - # 2
    frequency:    5.8538292150
    eigenvector:
    - # atom 1
      - [ -0.00000000000000,  0.00000000000000 ]
      - [  0.00000000000000,  0.00000000000000 ]
      - [ -1.00000000000000,  0.00000000000000 ]
  - # 3
    frequency:    3.0409279003
    eigenvector:
    - # atom 1
      - [  1.00000000000000,  0.00000000000000 ]
      - [  0.00000000000000,  0.00000000000000 ]
      - [  0.00000000000000,  0.00000000000000 ]

- q-position: [    0.8000000,    0.8000000,    1.0000000 ]
  distance:    0.0523297
  band:
  - # 1
    frequency:    3.4177753296
    eigenvector:
    - # atom 1
      - [  0.02896309952538,  0.00000000000000 ]
      - [  0.99958048143503,  0.00000000000000 ]
      - [ -0.00000000000000,  0.00000000000000 ]
  - # 2
    frequency:    6.5192027904
    eigenvector:
    - # atom 1
      - [  0.00000000000000,  0.00000000000000 ]
      - [  0.00000000000000,  0.00000000000000 ]
      - [  1.00000000000000,  0.00000000000000 ]
  - # 3
    frequency:    3.4177753296
    eigenvector:
    - # atom 1
      - [  0.99958048143503,  0.00000000000000 ]
      - [ -0.02896309952538,  0.00000000000000 ]
      - [ -0.00000000000000,  0.00000000000000 ]

- q-position: [    0.7750000,    0.7750000,    1.0000000 ]
  distance:    0.0588709
  band:
  - # 1
    frequency:    3.7726930166
    eigenvector:
    - # atom 1
      - [ -0.00000000000000,  0.00000000000000 ]
      - [ -1.00000000000000,  0.00000000000000 ]
      - [  0.00000000000000,  0.00000000000000 ]
  - # 2
    frequency:    7.1254748995
    eigenvector:
    - # atom 1
      - [ -0.00000000000000,  0.00000000000000 ]
      - [ -0.00000000000000,  0.00000000000000 ]
      - [ -1.00000000000000,  0.00000000000000 ]
  - # 3
    frequency:    3.7726930166
    eigenvector:
    - # atom 1
      - [ -1.00000000000000,  0.00000000000000 ]
      - [  0.00000000000000,  0.00000000000000 ]
      - [  0.00000000000000,  0.00000000000000 ]

- q-position: [    0.7500000,    0.7500000,    1.0000000 ]
  distance:    0.0654121
  band:
  - # 1
    frequency:    4.1035799416
    eigenvector:
    - # atom 1
      - [  0.00000000000000,  0.00000000000000 ]
      - [ -1.00000000000000,  0.00000000000000 ]
      - [  0.00000000000000,  0.00000000000000 ]
  - # 2
    frequency:    7.6704508029
    eigenvector:
    - # atom 1
      - [ -0.00000000000000,  0.00000000000000 ]
      - [ -0.00000000000000,  0.00000000000000 ]
      - [ -1.00000000000000,  0.00000000000000 ]
  - # 3
    frequency:    4.1035799416
    eigenvector:
    - # atom 1
      - [  1.00000000000000,  0.00000000000000 ]
      - [  0.00000000000000,  0.00000000000000 ]
      - [  0.00000000000000,  0.00000000000000 ]

- q-position: [    0.7250000,    0.7250000,    1.0000000 ]
  distance:    0.0719533
  band:
  - # 1
    frequency:    4.4085259914
    eigenvector:
    - # atom 1
      - [ -0.00000000000000,  0.00000000000000 ]
      - [  1.00000000000000,  0.00000000000000 ]
      - [ -0.00000000000000,  0.00000000000000 ]
  - # 2
    frequency:    8.1532956618
    eigenvector:
    - # atom 1
      - [  0.00000000000000,  0.00000000000000 ]
      - [  0.00000000000000,  0.00000000000000 ]
      - [  1.00000000000000,  0.00000000000000 ]
  - # 3
    frequency:    4.4085259914
    eigenvector:
    - # atom 1
      - [  1.00000000000000,  0.00000000000000 ]
      - [  0.00000000000000,  0.00000000000000 ]
      - [  0.00000000000000,  0.00000000000000 ]

- q-position: [    0.7000000,    0.7000000,    1.0000000 ]
  distance:    0.0784945
  band:
  - # 1
    frequency:    4.6858166925
    eigenvector:
    - # atom 1
      - [ -0.00000000000000,  0.00000000000000 ]
      - [  1.00000000000000,  0.00000000000000 ]
      - [  0.00000000000000,  0.00000000000000 ]
  - # 2
    frequency:    8.5744387357
    eigenvector:
    - # atom 1
      - [  0.00000000000000,  0.00000000000000 ]
      - [ -0.00000000000000,  0.00000000000000 ]
      - [  1.00000000000000,  0.00000000000000 ]
  - # 3
    frequency:    4.6858166925
    eigenvector:
    - # atom 1
      - [  1.00000000000000,  0.00000000000000 ]
      - [  0.00000000000000,  0.00000000000000 ]
      - [  0.00000000000000,  0.00000000000000 ]

- q-position: [    0.6750000,    0.6750000,    1.0000000 ]
  distance:    0.0850357
  band:
  - # 1
    frequency:    4.9339347211
    eigenvector:
    - # atom 1
      - [ -0.44209825908960,  0.00000000000000 ]
      - [  0.89696662664223,  0.00000000000000 ]
      - [  0.00000000000000,  0.00000000000000 ]
  - # 2
    frequency:    8.9354142743
    eigenvector:
    - # atom 1
      - [  0.00000000000000,  0.00000000000000 ]
      - [ -0.00000000000000,  0.00000000000000 ]
      - [  1.00000000000000,  0.00000000000000 ]
  - # 3
    frequency:    4.9339347211
    eigenvector:
    - # atom 1
      - [  0.89696662664223,  0.00000000000000 ]
      - [  0.44209825908960,  0.00000000000000 ]
      - [ -0.00000000000000,  0.00000000000000 ]

- q-position: [    0.6500000,    0.6500000,    1.0000000 ]
  distance:    0.0915769
  band:
  - # 1
    frequency:    5.1515586684
    eigenvector:
    - # atom 1
      - [  0.06620387021903,  0.00000000000000 ]
      - [  0.99780611722319,  0.00000000000000 ]
      - [ -0.00000000000000,  0.00000000000000 ]
  - # 2
    frequency:    9.2386429416
    eigenvector:
    - # atom 1
      - [  0.00000000000000,  0.00000000000000 ]
      - [  0.00000000000000,  0.00000000000000 ]
      - [  1.00000000000000,  0.00000000000000 ]
  - # 3
    frequency:    5.1515586684
    eigenvector:
    - # atom 1
      - [  0.99780611722319,  0.00000000000000 ]
      - [ -0.06620387021903,  0.00000000000000 ]
      - [ -0.00000000000000,  0.00000000000000 ]

- q-position: [    0.6250000,    0.6250000,    1.0000000 ]
  distance:    0.0981181
  band:
  - # 1
    frequency:    5.3375596472
    eigenvector:
    - # atom 1
      - [  0.00000000000000,  0.00000000000000 ]
      - [ -0.99995033537415, -0.00996628241237 ]
      - [ -0.00000000000000, -0.00000000000000 ]
  - # 2
    frequency:    9.4871622167
    eigenvector:
    - # atom 1
      - [ -0.00000000000000,  0.00000000000000 ]
      - [ -0.00000000000000, -0.00000000000000 ]
      - [  0.99977373005707,  0.02127178149058 ]
  - # 3
    frequency:    5.3375596472
    eigenvector:
    - # atom 1
      - [  1.00000000000000,  0.00000000000000 ]
      - [  0.00000000000000,  0.00000000000000 ]
      - [  0.00000000000000,  0.00000000000000 ]

- q-position: [    0.6000000,    0.6000000,    1.0000000 ]
  distance:    0.1046593
  band:
  - # 1
    frequency:    5.4909964025
    eigenvector:
    - # atom 1
      - [  0.00000000000000,  0.00000000000000 ]
      - [ -1.00000000000000,  0.00000000000000 ]
      - [  0.00000000000000,  0.00000000000000 ]
  - # 2
    frequency:    9.6843194840
    eigenvector:
    - # atom 1
      - [ -0.00000000000000,  0.00000000000000 ]
      - [  0.00000000000000,  0.00000000000000 ]
      - [ -1.00000000000000,  0.00000000000000 ]
  - # 3
    frequency:    5.4909964025
    eigenvector:
    - # atom 1
      - [  1.00000000000000,  0.00000000000000 ]
      - [  0.00000000000000,  0.00000000000000 ]
      - [  0.00000000000000,  0.00000000000000 ]

- q-position: [    0.5750000,    0.5750000,    1.0000000 ]
  distance:    0.1112005
  band:
  - # 1
    frequency:    5.6111096244
    eigenvector:
    - # atom 1
      - [ -0.00000000000000,  0.00000000000000 ]
      - [  1.00000000000000,  0.00000000000000 ]
      - [ -0.00000000000000,  0.00000000000000 ]
  - # 2
    frequency:    9.8334469158
    eigenvector:
    - # atom 1
      - [  0.00000000000000,  0.00000000000000 ]
      - [  0.00000000000000,  0.00000000000000 ]
      - [  1.00000000000000,  0.00000000000000 ]
  - # 3
    frequency:    5.6111096244
    eigenvector:
    - # atom 1
      - [  1.00000000000000,  0.00000000000000 ]
      - [  0.00000000000000,  0.00000000000000 ]
      - [  0.00000000000000,  0.00000000000000 ]

- q-position: [    0.5500000,    0.5500000,    1.0000000 ]
  distance:    0.1177417
  band:
  - # 1
    frequency:    5.6973161540
    eigenvector:
    - # atom 1
      - [  0.00000000000000,  0.00000000000000 ]
      - [ -1.00000000000000,  0.00000000000000 ]
      - [  0.00000000000000,  0.00000000000000 ]
  - # 2
    frequency:    9.9375418972
    eigenvector:
    - # atom 1
      - [ -0.00000000000000,  0.00000000000000 ]
      - [ -0.00000000000000,  0.00000000000000 ]
      - [ -1.00000000000000,  0.00000000000000 ]
  - # 3
    frequency:    5.6973161540
    eigenvector:
    - # atom 1
      - [  1.00000000000000,  0.00000000000000 ]
      - [  0.00000000000000,  0.00000000000000 ]
      - [  0.00000000000000,  0.00000000000000 ]

- q-position: [    0.5250000,    0.5250000,    1.0000000 ]
  distance:    0.1242830
  band:
  - # 1
    frequency:    5.7492037206
    eigenvector:
    - # atom 1
      - [ -0.00000000000000,  0.00000000000000 ]
      - [  1.00000000000000,  0.00000000000000 ]
      - [  0.00000000000000,  0.00000000000000 ]
  - # 2
    frequency:    9.9989795461
    eigenvector:
    - # atom 1
      - [  0.00000000000000,  0.00000000000000 ]
      - [ -0.00000000000000, -0.00000000000000 ]
      - [ -0.99999237069278,  0.00390622019802 ]
  - # 3
    frequency:    5.7492037206
    eigenvector:
    - # atom 1
      - [  1.00000000000000,  0.00000000000000 ]
      - [  0.00000000000000,  0.00000000000000 ]
      - [  0.00000000000000,  0.00000000000000 ]

- q-position: [    0.5000000,    0.5000000,    1.0000000 ]
  distance:    0.1308242
  band:
  - # 1
    frequency:    5.7665267584
    eigenvector:
    - # atom 1
      - [  0.00000000000000,  0.00000000000000 ]
      - [  0.00000000000000,  1.00000000000000 ]
      - [  0.00000000000000,  0.00000000000000 ]
  - # 2
    frequency:   10.0192837669
    eigenvector:
    - # atom 1
      - [  0.00000000000000,  0.00000000000000 ]
      - [  0.00000000000000,  0.00000000000000 ]
      - [  0.00000000000000, -1.00000000000000 ]
  - # 3
    frequency:    5.7665267584
    eigenvector:
    - # atom 1
      - [  1.00000000000000,  0.00000000000000 ]
      - [  0.00000000000000,  0.00000000000000 ]
      - [  0.00000000000000,  0.00000000000000 ]

- q-position: [    0.5000000,    0.5000000,    1.0000000 ]
  distance:    0.1308242
  band:
  - # 1
    frequency:    5.7665267584
    eigenvector:
    - # atom 1
      - [  0.00000000000000,  0.00000000000000 ]
      - [  0.00000000000000,  1.00000000000000 ]
      - [  0.00000000000000,  0.00000000000000 ]
  - # 2
    frequency:    5.7665267584
    eigenvector:
    - # atom 1
      - [  1.00000000000000,  0.00000000000000 ]
      - [  0.00000000000000,  0.00000000000000 ]
      - [  0.00000000000000,  0.00000000000000 ]
  - # 3
    frequency:   10.0192837669
    eigenvector:
    - # atom 1
      - [  0.00000000000000,  0.00000000000000 ]
      - [  0.00000000000000,  0.00000000000000 ]
      - [  0.00000000000000, -1.00000000000000 ]

- q-position: [    0.4937500,    0.4937500,    0.9875000 ]
  distance:    0.1331368
  band:
  - # 1
    frequency:    5.7720511512
    eigenvector:
    - # atom 1
      - [ -0.70710678118651,  0.00000000000000 ]
      - [ -0.70710678118659,  0.00000000000000 ]
      - [  0.00000000000000, -0.00000000000000 ]
  - # 2
    frequency:    5.7668402648
    eigenvector:
    - # atom 1
      - [ -0.70710678118659, -0.00000000000000 ]
      - [  0.70710678118651, -0.00000000000000 ]
      - [ -0.00000000000000,  0.00000000000000 ]
  - # 3
    frequency:   10.0161432216
    eigenvector:
    - # atom 1
      - [  0.00000000000000,  0.00000000000000 ]
      - [  0.00000000000000, -0.00000000000000 ]
      - [ -0.00717533909301, -0.99997425692310 ]

- q-position: [    0.4875000,    0.4875000,    0.9750000 ]
  distance:    0.1354495
  band:
  - # 1
    frequency:    5.7885370468
    eigenvector:
    - # atom 1
      - [ -0.70710678118656,  0.00000000000000 ]
      - [ -0.70710678118654,  0.00000000000000 ]
      - [  0.00000000000000, -0.00000000000000 ]
  - # 2
    frequency:    5.7677569677
    eigenvector:
    - # atom 1
      - [ -0.70710678118654,  0.00000000000000 ]
      - [  0.70710678118656,  0.00000000000000 ]
      - [  0.00000000000000,  0.00000000000000 ]
  - # 3
    frequency:   10.0067312514
    eigenvector:
    - # atom 1
      - [  0.00000000000000,  0.00000000000000 ]
      - [  0.00000000000000, -0.00000000000000 ]
      - [ -0.02877003787009, -0.99958605678598 ]

- q-position: [    0.4812500,    0.4812500,    0.9625000 ]
  distance:    0.1377622
  band:
  - # 1
    frequency:    5.8157258470
    eigenvector:
    - # atom 1
      - [ -0.70710678118655,  0.00000000000000 ]
      - [ -0.70710678118655,  0.00000000000000 ]
      - [ -0.00000000000000,  0.00000000000000 ]
  - # 2
    frequency:    5.7692060472
    eigenvector:
    - # atom 1
      - [  0.70710678118655,  0.00000000000000 ]
      - [ -0.70710678118655,  0.00000000000000 ]
      - [ -0.00000000000000,  0.00000000000000 ]
  - # 3
    frequency:    9.9910767666
    eigenvector:
    - # atom 1
      - [  0.00000000000000,  0.00000000000000 ]
      - [ -0.00000000000000,  0.00000000000000 ]
      - [ -0.00216866498981, -0.99999764844332 ]

- q-position: [    0.4750000,    0.4750000,    0.9500000 ]
  distance:    0.1400748
  band:
  - # 1
    frequency:    5.8531971155
    eigenvector:
    - # atom 1
      - [ -0.70710678118656,  0.00000000000000 ]
      - [ -0.70710678118654,  0.00000000000000 ]
      - [  0.00000000000000, -0.00000000000000 ]
  - # 2
    frequency:    5.7710715400
    eigenvector:
    - # atom 1
      - [ -0.70710678118654,  0.00000000000000 ]
      - [  0.70710678118656,  0.00000000000000 ]
      - [  0.00000000000000,  0.00000000000000 ]
  - # 3
    frequency:    9.9692276636
    eigenvector:
    - # atom 1
      - [  0.00000000000000,  0.00000000000000 ]
      - [ -0.00000000000000, -0.00000000000000 ]
      - [ -0.11563460342070,  0.99329181940240 ]

- q-position: [    0.4687500,    0.4687500,    0.9375000 ]
  distance:    0.1423875
  band:
  - # 1
    frequency:    5.9003835035
    eigenvector:
    - # atom 1
      - [ -0.70710678118655,  0.00000000000000 ]
      - [ -0.70710678118654,  0.00000000000000 ]
      - [  0.00000000000000, -0.00000000000000 ]
  - # 2
    frequency:    5.7731953650
    eigenvector:
    - # atom 1
      - [ -0.70710678118654,  0.00000000000000 ]
      - [  0.70710678118655,  0.00000000000000 ]
      - [  0.00000000000000,  0.00000000000000 ]
  - # 3
    frequency:    9.9412503965
    eigenvector:
    - # atom 1
      - [  0.00000000000000,  0.00000000000000 ]
      - [  0.00000000000000, -0.00000000000000 ]
      - [ -0.04580811660741, -0.99895025724652 ]

- q-position: [    0.4625000,    0.4625000,    0.9250000 ]
  distance:    0.1447002
  band:
  - # 1
    frequency:    5.9565899581
    eigenvector:
    - # atom 1
      - [ -0.70710678118655,  0.00000000000000 ]
      - [ -0.70710678118655,  0.00000000000000 ]
      - [  0.00000000000000, -0.00000000000000 ]
  - # 2
    frequency:    5.7753814043
    eigenvector:
    - # atom 1
      - [ -0.70710678118655,  0.00000000000000 ]
      - [  0.70710678118655,  0.00000000000000 ]
      - [  0.00000000000000,  0.00000000000000 ]
  - # 3
    frequency:    9.9072293840
    eigenvector:
    - # atom 1
      - [  0.00000000000000,  0.00000000000000 ]
      - [  0.00000000000000, -0.00000000000000 ]
      - [ -0.62495079980258, -0.78066413893948 ]

- q-position: [    0.4562500,    0.4562500,    0.9125000 ]
  distance:    0.1470128
  band:
  - # 1
    frequency:    6.0210158192
    eigenvector:
    - # atom 1
      - [ -0.70710678118655,  0.00000000000000 ]
      - [ -0.70710678118654,  0.00000000000000 ]
      - [  0.00000000000000, -0.00000000000000 ]
  - # 2
    frequency:    5.7774004979
    eigenvector:
    - # atom 1
      - [ -0.70710678118654,  0.00000000000000 ]
      - [  0.70710678118655,  0.00000000000000 ]
      - [  0.00000000000000,  0.00000000000000 ]
  - # 3
    frequency:    9.8672662560
    eigenvector:
    - # atom 1
      - [  0.00000000000000,  0.00000000000000 ]
      - [ -0.00000000000000, -0.00000000000000 ]
      - [ -0.09152130165531,  0.99580311876561 ]

- q-position: [    0.4500000,    0.4500000,    0.9000000 ]
  distance:    0.1493255
  band:
  - # 1
    frequency:    6.0927783597
    eigenvector:
    - # atom 1
      - [ -0.70710678118655,  0.00000000000000 ]
      - [ -0.70710678118655,  0.00000000000000 ]
      - [  0.00000000000000, -0.00000000000000 ]
  - # 2
    frequency:    5.7789961842
    eigenvector:
    - # atom 1
      - [ -0.70710678118655,  0.00000000000000 ]
      - [  0.70710678118655,  0.00000000000000 ]
      - [  0.00000000000000,  0.00000000000000 ]
  - # 3
    frequency:    9.8214789496
    eigenvector:
    - # atom 1
      - [  0.00000000000000,  0.00000000000000 ]
      - [  0.00000000000000, -0.00000000000000 ]
      - [ -0.34303873073299, -0.93932125985581 ]

- q-position: [    0.4437500,    0.4437500,    0.8875000 ]
  distance:    0.1516382
  band:
  - # 1
    frequency:    6.1709364286
    eigenvector:
    - # atom 1
      - [ -0.70710678118655,  0.00000000000000 ]
      - [ -0.70710678118655,  0.00000000000000 ]
      - [  0.00000000000000, -0.00000000000000 ]
  - # 2
    frequency:    5.7798910017
    eigenvector:
    - # atom 1
      - [ -0.70710678118655,  0.00000000000000 ]
      - [  0.70710678118655,  0.00000000000000 ]
      - [  0.00000000000000,  0.00000000000000 ]
  - # 3
    frequency:    9.7700006624
    eigenvector:
    - # atom 1
      - [  0.00000000000000,  0.00000000000000 ]
      - [ -0.00000000000000, -0.00000000000000 ]
      - [ -0.42507074887482,  0.90516012862421 ]

- q-position: [    0.4375000,    0.4375000,    0.8750000 ]
  distance:    0.1539508
  band:
  - # 1
    frequency:    6.2545130699
    eigenvector:
    - # atom 1
      - [ -0.70710678118655,  0.00000000000000 ]
      - [ -0.70710678118655,  0.00000000000000 ]
      - [  0.00000000000000, -0.00000000000000 ]
  - # 2
    frequency:    5.7797931624
    eigenvector:
    - # atom 1
      - [ -0.70710678118655,  0.00000000000000 ]
      - [  0.70710678118655,  0.00000000000000 ]
      - [  0.00000000000000,  0.00000000000000 ]
  - # 3
    frequency:    9.7129786740
    eigenvector:
    - # atom 1
      - [  0.00000000000000,  0.00000000000000 ]
      - [ -0.00000000000000, -0.00000000000000 ]
      - [ -0.28302606704203,  0.95911221730031 ]

- q-position: [    0.4312500,    0.4312500,    0.8625000 ]
  distance:    0.1562635
  band:
  - # 1
    frequency:    6.3425162710
    eigenvector:
    - # atom 1
      - [ -0.70710678118655,  0.00000000000000 ]
      - [ -0.70710678118655,  0.00000000000000 ]
      - [  0.00000000000000, -0.00000000000000 ]
  - # 2
    frequency:    5.7784034087
    eigenvector:
    - # atom 1
      - [ -0.70710678118655,  0.00000000000000 ]
      - [  0.70710678118655,  0.00000000000000 ]
      - [  0.00000000000000,  0.00000000000000 ]
  - # 3
    frequency:    9.6505730495
    eigenvector:
    - # atom 1
      - [  0.00000000000000,  0.00000000000000 ]
      - [ -0.00000000000000, -0.00000000000000 ]
      - [ -0.51887405359990,  0.85485069836832 ]

- q-position: [    0.4250000,    0.4250000,    0.8500000 ]
  distance:    0.1585762
  band:
  - # 1
    frequency:    6.4339572807
    eigenvector:
    - # atom 1
      - [ -0.70710678118655,  0.00000000000000 ]
      - [ -0.70710678118655,  0.00000000000000 ]
      - [  0.00000000000000, -0.00000000000000 ]
  - # 2
    frequency:    5.7754218728
    eigenvector:
    - # atom 1
      - [ -0.70710678118655,  0.00000000000000 ]
      - [  0.70710678118655,  0.00000000000000 ]
      - [  0.00000000000000,  0.00000000000000 ]
  - # 3
    frequency:    9.5829552370
    eigenvector:
    - # atom 1
      - [  0.00000000000000,  0.00000000000000 ]
      - [ -0.00000000000000,  0.00000000000000 ]
      - [  0.00000000000000,  1.00000000000000 ]

- q-position: [    0.4187500,    0.4187500,    0.8375000 ]
  distance:    0.1608888
  band:
  - # 1
    frequency:    6.5278662076
    eigenvector:
    - # atom 1
      - [ -0.70710678118655,  0.00000000000000 ]
      - [ -0.70710678118655,  0.00000000000000 ]
      - [  0.00000000000000, -0.00000000000000 ]
  - # 2
    frequency:    5.7705547764
    eigenvector:
    - # atom 1
      - [ -0.70710678118655,  0.00000000000000 ]
      - [  0.70710678118655,  0.00000000000000 ]
      - [  0.00000000000000,  0.00000000000000 ]
  - # 3
    frequency:    9.5103065767
    eigenvector:
    - # atom 1
      - [  0.00000000000000,  0.00000000000000 ]
      - [  0.00000000000000, -0.00000000000000 ]
      - [ -0.72888604879712, -0.68463503260418 ]

- q-position: [    0.4125000,    0.4125000,    0.8250000 ]
  distance:    0.1632015
  band:
  - # 1
    frequency:    6.6233048257
    eigenvector:
    - # atom 1
      - [ -0.70710678118655,  0.00000000000000 ]
      - [ -0.70710678118655,  0.00000000000000 ]
      - [  0.00000000000000, -0.00000000000000 ]
  - # 2
    frequency:    5.7635208221
    eigenvector:
    - # atom 1
      - [ -0.70710678118655,  0.00000000000000 ]
      - [  0.70710678118655,  0.00000000000000 ]
      - [  0.00000000000000,  0.00000000000000 ]
  - # 3
    frequency:    9.4328167361
    eigenvector:
    - # atom 1
      - [  0.00000000000000,  0.00000000000000 ]
      - [  0.00000000000000, -0.00000000000000 ]
      - [ -0.64527400113912, -0.76395121798052 ]

- q-position: [    0.4062500,    0.4062500,    0.8125000 ]
  distance:    0.1655142
  band:
  - # 1
    frequency:    6.7193766800
    eigenvector:
    - # atom 1
      - [ -0.70710678118655,  0.00000000000000 ]
      - [ -0.70710678118655,  0.00000000000000 ]
      - [  0.00000000000000, -0.00000000000000 ]
  - # 2
    frequency:    5.7540571532
    eigenvector:
    - # atom 1
      - [ -0.70710678118655,  0.00000000000000 ]
      - [  0.70710678118655,  0.00000000000000 ]
      - [  0.00000000000000,  0.00000000000000 ]
  - # 3
    frequency:    9.3506820906
    eigenvector:
    - # atom 1
      - [  0.00000000000000,  0.00000000000000 ]
      - [  0.00000000000000, -0.00000000000000 ]
      - [ -0.80790974887511, -0.58930623420473 ]

- q-position: [    0.4000000,    0.4000000,    0.8000000 ]
  distance:    0.1678268
  band:
  - # 1
    frequency:    6.8152346949
    eigenvector:
    - # atom 1
      - [ -0.70710678118655,  0.00000000000000 ]
      - [ -0.70710678118655,  0.00000000000000 ]
      - [  0.00000000000000, -0.00000000000000 ]
  - # 2
    frequency:    5.7419247763
    eigenvector:
    - # atom 1
      - [ -0.70710678118655,  0.00000000000000 ]
      - [  0.70710678118655,  0.00000000000000 ]
      - [  0.00000000000000,  0.00000000000000 ]
  - # 3
    frequency:    9.2641040682
    eigenvector:
    - # atom 1
      - [  0.00000000000000,  0.00000000000000 ]
      - [  0.00000000000000, -0.00000000000000 ]
      - [ -0.79602783377549, -0.60526001673223 ]

- q-position: [    0.3937500,    0.3937500,    0.7875000 ]
  distance:    0.1701395
  band:
  - # 1
    frequency:    6.9100865474
    eigenvector:
    - # atom 1
      - [ -0.70710678118655,  0.00000000000000 ]
      - [ -0.70710678118655,  0.00000000000000 ]
      - [  0.00000000000000, -0.00000000000000 ]
  - # 2
    frequency:    5.7269133625
    eigenvector:
    - # atom 1
      - [ -0.70710678118655,  0.00000000000000 ]
      - [  0.70710678118655,  0.00000000000000 ]
      - [  0.00000000000000,  0.00000000000000 ]
  - # 3
    frequency:    9.1732874768
    eigenvector:
    - # atom 1
      - [  0.00000000000000,  0.00000000000000 ]
      - [ -0.00000000000000, -0.00000000000000 ]
      - [ -0.96620964333596,  0.25775749285829 ]

- q-position: [    0.3875000,    0.3875000,    0.7750000 ]
  distance:    0.1724522
  band:
  - # 1
    frequency:    7.0031980951
    eigenvector:
    - # atom 1