32
1

1
  0.0200000000000000   0.0000000000000000   0.0000000000000000
  -0.0493525900    0.0000000000    0.0000000000
   0.0021020094    0.0000000000    0.0000000000
  -0.0012176302    0.0000000000    0.0000000000
   0.0007156342    0.0000000000    0.0000000000
  -0.0012176302    0.0000000000    0.0000000000
   0.0007156342    0.0000000000    0.0000000000
  -0.0020298652    0.0000000000    0.0000000000
   0.0015348267    0.0000000000    0.0000000000
   0.0071358330    0.0067554795    0.0000000000
   0.0069649910   -0.0065265932    0.0000000000
   0.0071358330   -0.0067554795    0.0000000000
   0.0069649910    0.0065265932    0.0000000000
   0.0002814260   -0.0009371985    0.0000000000
   0.0002792955    0.0009498415    0.0000000000
   0.0002814260    0.0009371985    0.0000000000
   0.0002792955   -0.0009498415    0.0000000000
   0.0071358330    0.0000000000    0.0067554795
   0.0069649910    0.0000000000   -0.0065265932
   0.0002814260    0.0000000000   -0.0009371985
   0.0002792955    0.0000000000    0.0009498415
   0.0071358330    0.0000000000   -0.0067554795
   0.0069649910    0.0000000000    0.0065265932
   0.0002814260    0.0000000000    0.0009371985
   0.0002792955    0.0000000000   -0.0009498415
  -0.0024694104   -0.0000223750   -0.0000223750
  -0.0000047323   -0.0000008412   -0.0000008412
  -0.0024694104    0.0000223750   -0.0000223750
  -0.0000047323    0.0000008412   -0.0000008412
  -0.0024694104   -0.0000223750    0.0000223750
  -0.0000047323   -0.0000008412    0.0000008412
  -0.0024694104    0.0000223750    0.0000223750
  -0.0000047323    0.0000008412    0.0000008412
