mesh: [    31,    31,    31 ]
nqpoint: 816    
reciprocal_lattice:
- [  -0.18280799,   0.18280799,   0.18280799 ] # a*
- [   0.18280799,  -0.18280799,   0.18280799 ] # b*
- [   0.18280799,   0.18280799,  -0.18280799 ] # c*
natom:   2      
lattice:
- [     0.000000000000000,     2.735110190000000,     2.735110190000000 ] # a
- [     2.735110190000000,     0.000000000000000,     2.735110190000000 ] # b
- [     2.735110190000000,     2.735110190000000,     0.000000000000000 ] # c
points:
- symbol: Si # 1
  coordinates: [  0.000000000000000,  0.000000000000000,  0.000000000000000 ]
  mass: 28.085500
- symbol: Si # 2
  coordinates: [  0.250000000000000,  0.250000000000000,  0.250000000000000 ]
  mass: 28.085500

phonon:
- q-position: [    0.0000000,    0.0000000,    0.0000000 ]
  distance_from_gamma:  0.000000000
  weight: 1    
  band:
  - # 1
    frequency:     0.0000002040
  - # 2
    frequency:     0.0000003190
  - # 3
    frequency:     0.0000003619
  - # 4
    frequency:    15.4814714111
  - # 5
    frequency:    15.4814714111
  - # 6
    frequency:    15.4814714111

- q-position: [    0.0322581,    0.0000000,    0.0000000 ]
  distance_from_gamma:  0.010213959
  weight: 8    
  band:
  - # 1
    frequency:     0.4448233355
  - # 2
    frequency:     0.4448233355
  - # 3
    frequency:     0.9440867312
  - # 4
    frequency:    15.4540291920
  - # 5
    frequency:    15.4661896857
  - # 6
    frequency:    15.4661896857

- q-position: [    0.0645161,    0.0000000,    0.0000000 ]
  distance_from_gamma:  0.020427918
  weight: 8    
  band:
  - # 1
    frequency:     0.8795216734
  - # 2
    frequency:     0.8795216734
  - # 3
    frequency:     1.8796061944
  - # 4
    frequency:    15.3732387363
  - # 5
    frequency:    15.4210441470
  - # 6
    frequency:    15.4210441470

- q-position: [    0.0967742,    0.0000000,    0.0000000 ]
  distance_from_gamma:  0.030641877
  weight: 8    
  band:
  - # 1
    frequency:     1.2940400937
  - # 2
    frequency:     1.2940400937
  - # 3
    frequency:     2.7987166366
  - # 4
    frequency:    15.2435282209
  - # 5
    frequency:    15.3481962200
  - # 6
    frequency:    15.3481962200

- q-position: [    0.1290323,    0.0000000,    0.0000000 ]
  distance_from_gamma:  0.040855836
  weight: 8    
  band:
  - # 1
    frequency:     1.6785748230
  - # 2
    frequency:     1.6785748230
  - # 3
    frequency:     3.6949060019
  - # 4
    frequency:    15.0716823766
  - # 5
    frequency:    15.2514052855
  - # 6
    frequency:    15.2514052855

- q-position: [    0.1612903,    0.0000000,    0.0000000 ]
  distance_from_gamma:  0.051069795
  weight: 8    
  band:
  - # 1
    frequency:     2.0239550019
  - # 2
    frequency:     2.0239550019
  - # 3
    frequency:     4.5633668232
  - # 4
    frequency:    14.8659785352
  - # 5
    frequency:    15.1361027621
  - # 6
    frequency:    15.1361027621

- q-position: [    0.1935484,    0.0000000,    0.0000000 ]
  distance_from_gamma:  0.061283754
  weight: 8    
  band:
  - # 1
    frequency:     2.3222708798
  - # 2
    frequency:     2.3222708798
  - # 3
    frequency:     5.4010636473
  - # 4
    frequency:    14.6350633995
  - # 5
    frequency:    15.0092355216
  - # 6
    frequency:    15.0092355216

- q-position: [    0.2258065,    0.0000000,    0.0000000 ]
  distance_from_gamma:  0.071497713
  weight: 8    
  band:
  - # 1
    frequency:     2.5677223032
  - # 2
    frequency:     2.5677223032
  - # 3
    frequency:     6.2064652065
  - # 4
    frequency:    14.3867047228
  - # 5
    frequency:    14.8787516370
  - # 6
    frequency:    14.8787516370

- q-position: [    0.2580645,    0.0000000,    0.0000000 ]
  distance_from_gamma:  0.081711672
  weight: 8    
  band:
  - # 1
    frequency:     2.7575577333
  - # 2
    frequency:     2.7575577333
  - # 3
    frequency:     6.9789849023
  - # 4
    frequency:    14.1266195865
  - # 5
    frequency:    14.7527211007
  - # 6
    frequency:    14.7527211007

- q-position: [    0.2903226,    0.0000000,    0.0000000 ]
  distance_from_gamma:  0.091925631
  weight: 8    
  band:
  - # 1
    frequency:     2.8928557505
  - # 2
    frequency:     2.8928557505
  - # 3
    frequency:     7.7182540105
  - # 4
    frequency:    13.8576154568
  - # 5
    frequency:    14.6382519610
  - # 6
    frequency:    14.6382519610

- q-position: [    0.3225806,    0.0000000,    0.0000000 ]
  distance_from_gamma:  0.102139590
  weight: 8    
  band:
  - # 1
    frequency:     2.9788265044
  - # 2
    frequency:     2.9788265044
  - # 3
    frequency:     8.4234135754
  - # 4
    frequency:    13.5792494075
  - # 5
    frequency:    14.5405052087
  - # 6
    frequency:    14.5405052087

- q-position: [    0.3548387,    0.0000000,    0.0000000 ]
  distance_from_gamma:  0.112353549
  weight: 8    
  band:
  - # 1
    frequency:     3.0243635252
  - # 2
    frequency:     3.0243635252
  - # 3
    frequency:     9.0926116643
  - # 4
    frequency:    13.2881157230
  - # 5
    frequency:    14.4621368728
  - # 6
    frequency:    14.4621368728

- q-position: [    0.3870968,    0.0000000,    0.0000000 ]
  distance_from_gamma:  0.122567508
  weight: 8    
  band:
  - # 1
    frequency:     3.0407943217
  - # 2
    frequency:     3.0407943217
  - # 3
    frequency:     9.7227858006
  - # 4
    frequency:    12.9787738174
  - # 5
    frequency:    14.4033591093
  - # 6
    frequency:    14.4033591093

- q-position: [    0.4193548,    0.0000000,    0.0000000 ]
  distance_from_gamma:  0.132781467
  weight: 8    
  band:
  - # 1
    frequency:     3.0400807354
  - # 2
    frequency:     3.0400807354
  - # 3
    frequency:    10.3094777138
  - # 4
    frequency:    12.6454176595
  - # 5
    frequency:    14.3625764956
  - # 6
    frequency:    14.3625764956

- q-position: [    0.4516129,    0.0000000,    0.0000000 ]
  distance_from_gamma:  0.142995426
  weight: 8    
  band:
  - # 1
    frequency:     3.0329314721
  - # 2
    frequency:     3.0329314721
  - # 3
    frequency:    10.8449028162
  - # 4
    frequency:    12.2857210905
  - # 5
    frequency:    14.3373550644
  - # 6
    frequency:    14.3373550644

- q-position: [    0.4838710,    0.0000000,    0.0000000 ]
  distance_from_gamma:  0.153209385
  weight: 8    
  band:
  - # 1
    frequency:     3.0272695088
  - # 2
    frequency:     3.0272695088
  - # 3
    frequency:    11.2940944862
  - # 4
    frequency:    11.9266129742
  - # 5
    frequency:    14.3254173703
  - # 6
    frequency:    14.3254173703

- q-position: [    0.0322581,    0.0322581,    0.0000000 ]
  distance_from_gamma:  0.011794064
  weight: 6    
  band:
  - # 1
    frequency:     0.6067911427
  - # 2
    frequency:     0.6067911427
  - # 3
    frequency:     0.9898845152
  - # 4
    frequency:    15.4487557298
  - # 5
    frequency:    15.4487557298
  - # 6
    frequency:    15.4695178837

- q-position: [    0.0645161,    0.0322581,    0.0000000 ]
  distance_from_gamma:  0.019558242
  weight: 24   
  band:
  - # 1
    frequency:     0.8922533110
  - # 2
    frequency:     0.9588438824
  - # 3
    frequency:     1.7201101004
  - # 4
    frequency:    15.3880027941
  - # 5
    frequency:    15.4016931598
  - # 6
    frequency:    15.4438061755

- q-position: [    0.0967742,    0.0322581,    0.0000000 ]
  distance_from_gamma:  0.028889439
  weight: 24   
  band:
  - # 1
    frequency:     1.2359916722
  - # 2
    frequency:     1.3426779807
  - # 3
    frequency:     2.5836160320
  - # 4
    frequency:    15.2755558470
  - # 5
    frequency:    15.3275392345
  - # 6
    frequency:    15.3895123965

- q-position: [    0.1290323,    0.0322581,    0.0000000 ]
  distance_from_gamma:  0.038669425
  weight: 24   
  band:
  - # 1
    frequency:     1.5994229431
  - # 2
    frequency:     1.7140827827
  - # 3
    frequency:     3.4557509373
  - # 4
    frequency:    15.1184490420
  - # 5
    frequency:    15.2302606129
  - # 6
    frequency:    15.3080464067

- q-position: [    0.1612903,    0.0322581,    0.0000000 ]
  distance_from_gamma:  0.048628171
  weight: 24   
  band:
  - # 1
    frequency:     1.9480296240
  - # 2
    frequency:     2.0542821852
  - # 3
    frequency:     4.3127799738
  - # 4
    frequency:    14.9245947836
  - # 5
    frequency:    15.1152930012
  - # 6
    frequency:    15.2035709999

- q-position: [    0.1935484,    0.0322581,    0.0000000 ]
  distance_from_gamma:  0.058674727
  weight: 24   
  band:
  - # 1
    frequency:     2.2633296096
  - # 2
    frequency:     2.3515826754
  - # 3
    frequency:     5.1456210599
  - # 4
    frequency:    14.7024448103
  - # 5
    frequency:    14.9894080331
  - # 6
    frequency:    15.0823087567

- q-position: [    0.2258065,    0.0322581,    0.0000000 ]
  distance_from_gamma:  0.068770620
  weight: 24   
  band:
  - # 1
    frequency:     2.5340617430
  - # 2
    frequency:     2.5982150754
  - # 3
    frequency:     5.9501115564
  - # 4
    frequency:    14.4599376582
  - # 5
    frequency:    14.8602673989
  - # 6
    frequency:    14.9520545672

- q-position: [    0.2580645,    0.0322581,    0.0000000 ]
  distance_from_gamma:  0.078896911
  weight: 24   
  band:
  - # 1
    frequency:     2.7536473283
  - # 2
    frequency:     2.7901901858
  - # 3
    frequency:     6.7243968678
  - # 4
    frequency:    14.2033841348
  - # 5
    frequency:    14.7356295501
  - # 6
    frequency:    14.8213516050

- q-position: [    0.2903226,    0.0322581,    0.0000000 ]
  distance_from_gamma:  0.089043230
  weight: 24   
  band:
  - # 1
    frequency:     2.9198019847
  - # 2
    frequency:     2.9277646108
  - # 3
    frequency:     7.4675571377
  - # 4
    frequency:    13.9365674146
  - # 5
    frequency:    14.6223386611
  - # 6
    frequency:    14.6983608931

- q-position: [    0.3225806,    0.0322581,    0.0000000 ]
  distance_from_gamma:  0.099203433
  weight: 24   
  band:
  - # 1
    frequency:     3.0156689026
  - # 2
    frequency:     3.0345928837
  - # 3
    frequency:     8.1786029545
  - # 4
    frequency:    13.6602492113
  - # 5
    frequency:    14.5253782165
  - # 6
    frequency:    14.5896957004

- q-position: [    0.3548387,    0.0322581,    0.0000000 ]
  distance_from_gamma:  0.109373650
  weight: 24   
  band:
  - # 1
    frequency:     3.0626413714
  - # 2
    frequency:     3.1041983288
  - # 3
    frequency:     8.8557714575
  - # 4
    frequency:    13.3722045627
  - # 5
    frequency:    14.4473156169
  - # 6
    frequency:    14.4995802440

- q-position: [    0.3870968,    0.0322581,    0.0000000 ]
  distance_from_gamma:  0.119551325
  weight: 24   
  band:
  - # 1
    frequency:     3.0801200555
  - # 2
    frequency:     3.1380476182
  - # 3
    frequency:     9.4961644448
  - # 4
    frequency:    13.0678502702
  - # 5
    frequency:    14.3883445609
  - # 6
    frequency:    14.4295958981

- q-position: [    0.4193548,    0.0322581,    0.0000000 ]
  distance_from_gamma:  0.129734704
  weight: 24   
  band:
  - # 1
    frequency:     3.0803042241
  - # 2
    frequency:     3.1473651018
  - # 3
    frequency:    10.0955848136
  - # 4
    frequency:    12.7415622756
  - # 5
    frequency:    14.3469009857
  - # 6
    frequency:    14.3790536986

- q-position: [    0.4516129,    0.0322581,    0.0000000 ]
  distance_from_gamma:  0.139922540
  weight: 24   
  band:
  - # 1
    frequency:     3.0740773402
  - # 2
    frequency:     3.1434209510
  - # 3
    frequency:    10.6475671882
  - # 4
    frequency:    12.3894223179
  - # 5
    frequency:    14.3206211496
  - # 6
    frequency:    14.3458160373

- q-position: [    0.4838710,    0.0322581,    0.0000000 ]
  distance_from_gamma:  0.150113927
  weight: 24   
  band:
  - # 1
    frequency:     3.0693264883
  - # 2
    frequency:     3.1358830426
  - # 3
    frequency:    11.1332770175
  - # 4
    frequency:    12.0212992797
  - # 5
    frequency:    14.3073339231
  - # 6
    frequency:    14.3272872667

- q-position: [   -0.4838710,    0.0322581,    0.0000000 ]
  distance_from_gamma:  0.156909816
  weight: 24   
  band:
  - # 1
    frequency:     3.0699722491
  - # 2
    frequency:     3.1315367691
  - # 3
    frequency:    11.3536323355
  - # 4
    frequency:    11.8304621940
  - # 5
    frequency:    14.3058335243
  - # 6
    frequency:    14.3213125137

- q-position: [   -0.4516129,    0.0322581,    0.0000000 ]
  distance_from_gamma:  0.146716449
  weight: 24   
  band:
  - # 1
    frequency:     3.0756987287
  - # 2
    frequency:     3.1334262624
  - # 3
    frequency:    10.9829403385
  - # 4
    frequency:    12.1410703314
  - # 5
    frequency:    14.3162868686
  - # 6
    frequency:    14.3268091899

- q-position: [   -0.4193548,    0.0322581,    0.0000000 ]
  distance_from_gamma:  0.136526161
  weight: 24   
  band:
  - # 1
    frequency:     3.0821854407
  - # 2
    frequency:     3.1403712063
  - # 3
    frequency:    10.4702300708
  - # 4
    frequency:    12.5071425124
  - # 5
    frequency:    14.3402207432
  - # 6
    frequency:    14.3440418040

- q-position: [   -0.3870968,    0.0322581,    0.0000000 ]
  distance_from_gamma:  0.126339695
  weight: 24   
  band:
  - # 1
    frequency:     3.0816957365
  - # 2
    frequency:     3.1469006000
  - # 3
    frequency:     9.9009790787
  - # 4
    frequency:    12.8502529336
  - # 5
    frequency:    14.3745081443
  - # 6
    frequency:    14.3800916714

- q-position: [   -0.3548387,    0.0322581,    0.0000000 ]
  distance_from_gamma:  0.116158059
  weight: 24   
  band:
  - # 1
    frequency:     3.0640352993
  - # 2
    frequency:     3.1437779305
  - # 3
    frequency:     9.2868477778
  - # 4
    frequency:    13.1684463098
  - # 5
    frequency:    14.4204463056
  - # 6
    frequency:    14.4384943017

- q-position: [   -0.3225806,    0.0322581,    0.0000000 ]
  distance_from_gamma:  0.105982643
  weight: 24   
  band:
  - # 1
    frequency:     3.0179309300
  - # 2
    frequency:     3.1192598517
  - # 3
    frequency:     8.6332805497
  - # 4
    frequency:    13.4667754992
  - # 5
    frequency:    14.4840293889
  - # 6
    frequency:    14.5171458510

- q-position: [   -0.2903226,    0.0322581,    0.0000000 ]
  distance_from_gamma:  0.095815429
  weight: 24   
  band:
  - # 1
    frequency:     2.9327167263
  - # 2
    frequency:     3.0609811111
  - # 3
    frequency:     7.9440413975
  - # 4
    frequency:    13.7507870479
  - # 5
    frequency:    14.5664041823
  - # 6
    frequency:    14.6158891157

- q-position: [   -0.2580645,    0.0322581,    0.0000000 ]
  distance_from_gamma:  0.085659337
  weight: 24   
  band:
  - # 1
    frequency:     2.7999934307
  - # 2
    frequency:     2.9580573310
  - # 3
    frequency:     7.2216807066
  - # 4
    frequency:    14.0244149489
  - # 5
    frequency:    14.6668245559
  - # 6
    frequency:    14.7320227415

- q-position: [   -0.2258065,    0.0322581,    0.0000000 ]
  distance_from_gamma:  0.075518857
  weight: 24   
  band:
  - # 1
    frequency:     2.6148553201
  - # 2
    frequency:     2.8028651775
  - # 3
    frequency:     6.4677381413
  - # 4
    frequency:    14.2888819663
  - # 5
    frequency:    14.7821622473
  - # 6
    frequency:    14.8602136731

- q-position: [   -0.1935484,    0.0322581,    0.0000000 ]
  distance_from_gamma:  0.065401248
  weight: 24   
  band:
  - # 1
    frequency:     2.3764394923
  - # 2
    frequency:     2.5920892276
  - # 3
    frequency:     5.6832444599
  - # 4
    frequency:    14.5422763778
  - # 5
    frequency:    14.9069865813
  - # 6
    frequency:    14.9930547267

- q-position: [   -0.1612903,    0.0322581,    0.0000000 ]
  distance_from_gamma:  0.055319063
  weight: 24   
  band:
  - # 1
    frequency:     2.0878520862
  - # 2
    frequency:     2.3269313220
  - # 3
    frequency:     4.8695927883
  - # 4
    frequency:    14.7797492690
  - # 5
    frequency:    15.0342018828
  - # 6
    frequency:    15.1220896031

- q-position: [   -0.1290323,    0.0322581,    0.0000000 ]
  distance_from_gamma:  0.045295962
  weight: 24   
  band:
  - # 1
    frequency:     1.7558282723
  - # 2
    frequency:     2.0126771966
  - # 3
    frequency:     4.0298131872
  - # 4
    frequency:    14.9942266890
  - # 5
    frequency:    15.1560178219
  - # 6
    frequency:    15.2389749806

- q-position: [   -0.0967742,    0.0322581,    0.0000000 ]
  distance_from_gamma:  0.035382192
  weight: 24   
  band:
  - # 1
    frequency:     1.3908457639
  - # 2
    frequency:     1.6579085287
  - # 3
    frequency:     3.1707381243
  - # 4
    frequency:    15.1774627434
  - # 5
    frequency:    15.2649266260
  - # 6
    frequency:    15.3364566046

- q-position: [   -0.0645161,    0.0322581,    0.0000000 ]
  distance_from_gamma:  0.025704566
  weight: 24   
  band:
  - # 1
    frequency:     1.0096600171
  - # 2
    frequency:     1.2729694314
  - # 3
    frequency:     2.3089485716
  - # 4
    frequency:    15.3212283331
  - # 5
    frequency:    15.3544245225
  - # 6
    frequency:    15.4089689198

- q-position: [   -0.0322581,    0.0322581,    0.0000000 ]
  distance_from_gamma:  0.016679325
  weight: 12   
  band:
  - # 1
    frequency:     0.6497321725
  - # 2
    frequency:     0.8614343597
  - # 3
    frequency:     1.4983990709
  - # 4
    frequency:    15.4172763562
  - # 5
    frequency:    15.4205467975
  - # 6
    frequency:    15.4528368729

- q-position: [    0.0645161,    0.0645161,    0.0000000 ]
  distance_from_gamma:  0.023588128
  weight: 6    
  band:
  - # 1
    frequency:     1.2027174220
  - # 2
    frequency:     1.2027174220
  - # 3
    frequency:     1.9704766670
  - # 4
    frequency:    15.3525259944
  - # 5
    frequency:    15.3525259944
  - # 6
    frequency:    15.4332182985

- q-position: [    0.0967742,    0.0645161,    0.0000000 ]
  distance_from_gamma:  0.030641877
  weight: 24   
  band:
  - # 1
    frequency:     1.4787761604
  - # 2
    frequency:     1.5199963559
  - # 3
    frequency:     2.6029246667
  - # 4
    frequency:    15.2628663944
  - # 5
    frequency:    15.2765071560
  - # 6
    frequency:    15.3950543071

- q-position: [    0.1290323,    0.0645161,    0.0000000 ]
  distance_from_gamma:  0.039116485
  weight: 24   
  band:
  - # 1
    frequency:     1.7735914105
  - # 2
    frequency:     1.8532408125
  - # 3
    frequency:     3.3688761954
  - # 4
    frequency:    15.1254550844
  - # 5
    frequency:    15.1779073489
  - # 6
    frequency:    15.3289807919

- q-position: [    0.1612903,    0.0645161,    0.0000000 ]
  distance_from_gamma:  0.048269287
  weight: 24   
  band:
  - # 1
    frequency:     2.0884463575
  - # 2
    frequency:     2.1717413666
  - # 3
    frequency:     4.1639344142
  - # 4
    frequency:    14.9485103382
  - # 5
    frequency:    15.0622883341
  - # 6
    frequency:    15.2367843247

- q-position: [    0.1935484,    0.0645161,    0.0000000 ]
  distance_from_gamma:  0.057778877
  weight: 24   
  band:
  - # 1
    frequency:     2.3975390466
  - # 2
    frequency:     2.4573040827
  - # 3
    frequency:     4.9555174114
  - # 4
    frequency:    14.7402300447
  - # 5
    frequency:    14.9363712797
  - # 6
    frequency:    15.1233990980

- q-position: [    0.2258065,    0.0645161,    0.0000000 ]
  distance_from_gamma:  0.067494616
  weight: 24   
  band:
  - # 1
    frequency:     2.6800717792
  - # 2
    frequency:     2.6984864226
  - # 3
    frequency:     5.7307993219
  - # 4
    frequency:    14.5081838081
  - # 5
    frequency:    14.8076408181
  - # 6
    frequency:    14.9962345801

- q-position: [    0.2580645,    0.0645161,    0.0000000 ]
  distance_from_gamma:  0.077338849
  weight: 24   
  band:
  - # 1
    frequency:     2.8889962505
  - # 2
    frequency:     2.9223093328
  - # 3
    frequency:     6.4840969018
  - # 4
    frequency:    14.2585388659
  - # 5
    frequency:    14.6836254029
  - # 6
    frequency:    14.8642124380

- q-position: [    0.2903226,    0.0645161,    0.0000000 ]
  distance_from_gamma:  0.087268104
  weight: 24   
  band:
  - # 1
    frequency:     3.0275285377
  - # 2
    frequency:     3.1165552215
  - # 3
    frequency:     7.2126614359
  - # 4
    frequency:    13.9954194111
  - # 5
    frequency:    14.5709527070
  - # 6
    frequency:    14.7364345915

- q-position: [    0.3225806,    0.0645161,    0.0000000 ]
  distance_from_gamma:  0.097256343
  weight: 24   
  band:
  - # 1
    frequency:     3.1177472421
  - # 2
    frequency:     3.2605075395
  - # 3
    frequency:     7.9146154653
  - # 4
    frequency:    13.7205403741
  - # 5
    frequency:    14.4744398895
  - # 6
    frequency:    14.6207309791

- q-position: [    0.3548387,    0.0645161,    0.0000000 ]
  distance_from_gamma:  0.107287093
  weight: 24   
  band:
  - # 1
    frequency:     3.1677182702
  - # 2
    frequency:     3.3567728701
  - # 3
    frequency:     8.5877403645
  - # 4
    frequency:    13.4331186354
  - # 5
    frequency:    14.3965419591
  - # 6
    frequency:    14.5225500731

- q-position: [    0.3870968,    0.0645161,    0.0000000 ]
  distance_from_gamma:  0.117349455
  weight: 24   
  band:
  - # 1
    frequency:     3.1885139602
  - # 2
    frequency:     3.4120979967
  - # 3
    frequency:     9.2288283024
  - # 4
    frequency:    13.1301192535
  - # 5
    frequency:    14.3373802385
  - # 6
    frequency:    14.4445317572

- q-position: [    0.4193548,    0.0645161,    0.0000000 ]
  distance_from_gamma:  0.127435939
  weight: 24   
  band:
  - # 1
    frequency:     3.1921387924
  - # 2
    frequency:     3.4361351876
  - # 3
    frequency:     9.8334058652
  - # 4
    frequency:    12.8070640294
  - # 5
    frequency:    14.2953471582
  - # 6
    frequency:    14.3867754518

- q-position: [    0.4516129,    0.0645161,    0.0000000 ]
  distance_from_gamma:  0.137541239
  weight: 24   
  band:
  - # 1
    frequency:     3.1892805568
  - # 2
    frequency:     3.4398487655
  - # 3
    frequency:    10.3951331010
  - # 4
    frequency:    12.4600275673
  - # 5
    frequency:    14.2680669478
  - # 6
    frequency:    14.3475690079

- q-position: [    0.4838710,    0.0645161,    0.0000000 ]
  distance_from_gamma:  0.147661492
  weight: 24   
  band:
  - # 1
    frequency:     3.1874984910
  - # 2
    frequency:     3.4338444721
  - # 3
    frequency:    10.9006268296
  - # 4
    frequency:    12.0927371131
  - # 5
    frequency:    14.2534012916
  - # 6
    frequency:    14.3242939536

- q-position: [    0.5161290,    0.0645161,    0.0000000 ]
  distance_from_gamma:  0.157793821
  weight: 24   
  band:
  - # 1
    frequency:     3.1902508715
  - # 2
    frequency:     3.4268824798
  - # 3
    frequency:    11.2616915025
  - # 4
    frequency:    11.7862832603
  - # 5
    frequency:    14.2502355403
  - # 6
    frequency:    14.3142905526

- q-position: [   -0.4516129,    0.0645161,    0.0000000 ]
  distance_from_gamma:  0.151037714
  weight: 24   
  band:
  - # 1
    frequency:     3.1967770807
  - # 2
    frequency:     3.4246845324
  - # 3
    frequency:    11.0577519474
  - # 4
    frequency:    11.9581580863
  - # 5
    frequency:    14.2588904341
  - # 6
    frequency:    14.3155498061

- q-position: [   -0.4193548,    0.0645161,    0.0000000 ]
  distance_from_gamma:  0.140913154
  weight: 24   
  band:
  - # 1
    frequency:     3.2025605922
  - # 2
    frequency:     3.4290387681
  - # 3
    frequency:    10.5780104841
  - # 4
    frequency:    12.3207664609
  - # 5
    frequency:    14.2811013240
  - # 6
    frequency:    14.3271583997

- q-position: [   -0.3870968,    0.0645161,    0.0000000 ]
  distance_from_gamma:  0.130802497
  weight: 24   
  band:
  - # 1
    frequency:     3.2000938682
  - # 2
    frequency:     3.4372614455
  - # 3
    frequency:    10.0294139359
  - # 4
    frequency:    12.6731913385
  - # 5
    frequency:    14.3195691755
  - # 6
    frequency:    14.3494546482

- q-position: [   -0.3548387,    0.0645161,    0.0000000 ]
  distance_from_gamma:  0.120709234
  weight: 24   
  band:
  - # 1
    frequency:     3.1798587087
  - # 2
    frequency:     3.4422202622
  - # 3
    frequency:     9.4344797246
  - # 4
    frequency:    13.0022216578
  - # 5
    frequency:    14.3771410482
  - # 6
    frequency:    14.3838705268

- q-position: [   -0.3225806,    0.0645161,    0.0000000 ]
  distance_from_gamma:  0.110638127
  weight: 24   
  band:
  - # 1
    frequency:     3.1315718517
  - # 2
    frequency:     3.4331529201
  - # 3
    frequency:     8.8009281872
  - # 4
    frequency:    13.3109337029
  - # 5
    frequency:    14.4324578176
  - # 6
    frequency:    14.4557573876

- q-position: [   -0.2903226,    0.0645161,    0.0000000 ]
  distance_from_gamma:  0.100595830
  weight: 24   
  band:
  - # 1
    frequency:     3.0456720096
  - # 2
    frequency:     3.3973084243
  - # 3
    frequency:     8.1339245096
  - # 4
    frequency:    13.6044234004
  - # 5
    frequency:    14.4971477437
  - # 6
    frequency:    14.5554086803

- q-position: [   -0.2580645,    0.0645161,    0.0000000 ]
  distance_from_gamma:  0.090591924
  weight: 24   
  band:
  - # 1
    frequency:     2.9148266500
  - # 2
    frequency:     3.3221016196
  - # 3
    frequency:     7.4374558783
  - # 4
    frequency:    13.8866729155
  - # 5
    frequency:    14.5788786079
  - # 6
    frequency:    14.6734161033

- q-position: [   -0.2258065,    0.0645161,    0.0000000 ]
  distance_from_gamma:  0.080640699
  weight: 24   
  band:
  - # 1
    frequency:     2.7351296266
  - # 2
    frequency:     3.1972269982
  - # 3
    frequency:     6.7147172956
  - # 4
    frequency:    14.1591831830
  - # 5
    frequency:    14.6768146549
  - # 6
    frequency:    14.8043061876

- q-position: [   -0.1935484,    0.0645161,    0.0000000 ]
  distance_from_gamma:  0.070764384
  weight: 24   
  band:
  - # 1
    frequency:     2.5067777249
  - # 2
    frequency:     3.0161660731
  - # 3
    frequency:     5.9687915746
  - # 4
    frequency:    14.4204596067
  - # 5
    frequency:    14.7879088148
  - # 6
    frequency:    14.9403621196

- q-position: [   -0.1612903,    0.0645161,    0.0000000 ]
  distance_from_gamma:  0.060999373
  weight: 24   
  band:
  - # 1
    frequency:     2.2343136599
  - # 2
    frequency:     2.7767010230
  - # 3
    frequency:     5.2040058983
  - # 4
    frequency:    14.6661816605
  - # 5
    frequency:    14.9069774645
  - # 6
    frequency:    15.0726873848

- q-position: [   -0.1290323,    0.0645161,    0.0000000 ]
  distance_from_gamma:  0.051409133
  weight: 24   
  band:
  - # 1
    frequency:     1.9269001915
  - # 2
    frequency:     2.4802146483
  - # 3
    frequency:     4.4284202962
  - # 4
    frequency:    14.8898898251
  - # 5
    frequency:    15.0272681494
  - # 6
    frequency:    15.1924492118

- q-position: [   -0.0967742,    0.0645161,    0.0000000 ]
  distance_from_gamma:  0.042113232
  weight: 24   
  band:
  - # 1
    frequency:     1.5996154807
  - # 2
    frequency:     2.1294730491
  - # 3
    frequency:     3.6586884335
  - # 4
    frequency:    15.0839817453
  - # 5
    frequency:    15.1413058132
  - # 6
    frequency:    15.2919598855

- q-position: [   -0.0645161,    0.0645161,    0.0000000 ]
  distance_from_gamma:  0.033358650
  weight: 12   
  band:
  - # 1
    frequency:     1.2779326574
  - # 2
    frequency:     1.7250533902
  - # 3
    frequency:     2.9299815971
  - # 4
    frequency:    15.2399473321
  - # 5
    frequency:    15.2425961146
  - # 6
    frequency:    15.3653765551

- q-position: [    0.0967742,    0.0967742,    0.0000000 ]
  distance_from_gamma:  0.035382192
  weight: 6    
  band:
  - # 1
    frequency:     1.7764325762
  - # 2
    frequency:     1.7764325762
  - # 3
    frequency:     2.9329399263
  - # 4
    frequency:    15.1985086578
  - # 5
    frequency:    15.1985086578
  - # 6
    frequency:    15.3713190944

- q-position: [    0.1290323,    0.0967742,    0.0000000 ]
  distance_from_gamma:  0.042113232
  weight: 24   
  band:
  - # 1
    frequency:     2.0492066530
  - # 2
    frequency:     2.0654471005
  - # 3
    frequency:     3.5026513068
  - # 4
    frequency:    15.0849279974
  - # 5
    frequency:    15.0981848029
  - # 6
    frequency:    15.3195571397

- q-position: [    0.1612903,    0.0967742,    0.0000000 ]
  distance_from_gamma:  0.050037976
  weight: 24   
  band:
  - # 1
    frequency:     2.3334664719
  - # 2
    frequency:     2.3542967894
  - # 3
    frequency:     4.1768708267
  - # 4
    frequency:    14.9297236001
  - # 5
    frequency:    14.9813214445
  - # 6
    frequency:    15.2398532384

- q-position: [    0.1935484,    0.0967742,    0.0000000 ]
  distance_from_gamma:  0.058674727
  weight: 24   
  band:
  - # 1
    frequency:     2.6211095798
  - # 2
    frequency:     2.6303802385
  - # 3
    frequency:     4.8842766814
  - # 4
    frequency:    14.7410354870
  - # 5
    frequency:    14.8546974538
  - # 6
    frequency:    15.1352037824

- q-position: [    0.2258065,    0.0967742,    0.0000000 ]
  distance_from_gamma:  0.067751739
  weight: 24   
  band:
  - # 1
    frequency:     2.8514578932
  - # 2
    frequency:     2.9208185807
  - # 3
    frequency:     5.5956016270
  - # 4
    frequency:    14.5259444700
  - # 5
    frequency:    14.7257192213
  - # 6
    frequency:    15.0121074788

- q-position: [    0.2580645,    0.0967742,    0.0000000 ]
  distance_from_gamma:  0.077113699
  weight: 24   
  band:
  - # 1
    frequency:     3.0368247157
  - # 2
    frequency:     3.1856178213
  - # 3
    frequency:     6.2984203641
  - # 4
    frequency:    14.2897888455
  - # 5
    frequency:    14.6017612237
  - # 6
    frequency:    14.8797612468

- q-position: [    0.2903226,    0.0967742,    0.0000000 ]
  distance_from_gamma:  0.086668316
  weight: 24   
  band:
  - # 1
    frequency:     3.1742316972
  - # 2
    frequency:     3.4109496161
  - # 3
    frequency:     6.9871144142
  - # 4
    frequency:    14.0359528011
  - # 5
    frequency:    14.4892812696
  - # 6
    frequency:    14.7484586639

- q-position: [    0.3225806,    0.0967742,    0.0000000 ]
  distance_from_gamma:  0.096358297
  weight: 24   