14.400
5.970 0 0 0 5.970 0 0 0 4.558
2.11950 0 0 0 2.11950 0 0 0 2.14964
-2.14963 0 0 0 -2.14963 0 0 0 -2.12582
