natom:   32
displacements:
- atom:    1
  displacement:
    [   0.0100000000000000,  0.0000000000000000,  0.0000000000000000 ]
- atom:    1
  displacement:
    [   0.0000000000000000,  0.0000000000000000,  0.0100000000000000 ]
- atom:    1
  displacement:
    [   0.0000000000000000,  0.0000000000000000, -0.0100000000000000 ]
- atom:   17
  displacement:
    [   0.0100000000000000,  0.0000000000000000,  0.0000000000000000 ]
- atom:   17
  displacement:
    [   0.0000000000000000,  0.0000000000000000,  0.0100000000000000 ]
- atom:   17
  displacement:
    [   0.0000000000000000,  0.0000000000000000, -0.0100000000000000 ]
lattice:
- [    6.574337471825722,   0.000000000000000,   0.000000000000000 ]
- [   -3.287168735912861,   5.693543263653036,   0.000000000000000 ]
- [    0.000000000000000,   0.000000000000000,  10.609154212800609 ]
atoms:
- symbol: Zn # 1
  position: [   0.16666666666667,  0.33333333333333,  0.49984071654632 ]
- symbol: Zn # 2
  position: [   0.66666666666667,  0.33333333333333,  0.49984071654632 ]
- symbol: Zn # 3
  position: [   0.16666666666667,  0.83333333333333,  0.49984071654632 ]
- symbol: Zn # 4
  position: [   0.66666666666667,  0.83333333333333,  0.49984071654632 ]
- symbol: Zn # 5
  position: [   0.16666666666667,  0.33333333333333,  0.99984071654632 ]
- symbol: Zn # 6
  position: [   0.66666666666667,  0.33333333333333,  0.99984071654632 ]
- symbol: Zn # 7
  position: [   0.16666666666667,  0.83333333333333,  0.99984071654632 ]
- symbol: Zn # 8
  position: [   0.66666666666667,  0.83333333333333,  0.99984071654632 ]
- symbol: Zn # 9
  position: [   0.33333333333333,  0.16666666666667,  0.24984071654632 ]
- symbol: Zn # 10
  position: [   0.83333333333333,  0.16666666666667,  0.24984071654632 ]
- symbol: Zn # 11
  position: [   0.33333333333333,  0.66666666666667,  0.24984071654632 ]
- symbol: Zn # 12
  position: [   0.83333333333333,  0.66666666666667,  0.24984071654632 ]
- symbol: Zn # 13
  position: [   0.33333333333333,  0.16666666666667,  0.74984071654632 ]
- symbol: Zn # 14
  position: [   0.83333333333333,  0.16666666666667,  0.74984071654632 ]
- symbol: Zn # 15
  position: [   0.33333333333333,  0.66666666666667,  0.74984071654632 ]
- symbol: Zn # 16
  position: [   0.83333333333333,  0.66666666666667,  0.74984071654632 ]
- symbol: O  # 17
  position: [   0.16666666666667,  0.33333333333333,  0.18938077610513 ]
- symbol: O  # 18
  position: [   0.66666666666667,  0.33333333333333,  0.18938077610513 ]
- symbol: O  # 19
  position: [   0.16666666666667,  0.83333333333333,  0.18938077610513 ]
- symbol: O  # 20
  position: [   0.66666666666667,  0.83333333333333,  0.18938077610513 ]
- symbol: O  # 21
  position: [   0.16666666666667,  0.33333333333333,  0.68938077610513 ]
- symbol: O  # 22
  position: [   0.66666666666667,  0.33333333333333,  0.68938077610513 ]
- symbol: O  # 23
  position: [   0.16666666666667,  0.83333333333333,  0.68938077610513 ]
- symbol: O  # 24
  position: [   0.66666666666667,  0.83333333333333,  0.68938077610513 ]
- symbol: O  # 25
  position: [   0.33333333333333,  0.16666666666667,  0.43938077610513 ]
- symbol: O  # 26
  position: [   0.83333333333333,  0.16666666666667,  0.43938077610513 ]
- symbol: O  # 27
  position: [   0.33333333333333,  0.66666666666667,  0.43938077610513 ]
- symbol: O  # 28
  position: [   0.83333333333333,  0.66666666666667,  0.43938077610513 ]
- symbol: O  # 29
  position: [   0.33333333333333,  0.16666666666667,  0.93938077610513 ]
- symbol: O  # 30
  position: [   0.83333333333333,  0.16666666666667,  0.93938077610513 ]
- symbol: O  # 31
  position: [   0.33333333333333,  0.66666666666667,  0.93938077610513 ]
- symbol: O  # 32
  position: [   0.83333333333333,  0.66666666666667,  0.93938077610513 ]
