<?xml version="1.0" encoding="ISO-8859-1"?>
<modeling>
 <generator>
  <i name="program" type="string">vasp </i>
  <i name="version" type="string">5.2.12  </i>
  <i name="subversion" type="string">11Nov11 complex                                                      parallel </i>
  <i name="platform" type="string">LinuxIFC </i>
  <i name="date" type="string">2012 11 01 </i>
  <i name="time" type="string">12:31:43 </i>
 </generator>
 <incar>
  <i type="string" name="PREC">accurate</i>
  <i type="int" name="IALGO">    38</i>
  <i type="logical" name="ADDGRID"> T  </i>
  <i type="int" name="NELMIN">     5</i>
  <i type="int" name="IBRION">    -1</i>
  <i name="EDIFF">      0.00000001</i>
  <i name="ENCUT">    500.00000000</i>
  <i type="logical" name="LREAL"> F  </i>
  <i type="int" name="ISMEAR">     0</i>
  <i name="SIGMA">      0.01000000</i>
  <i type="logical" name="LWAVE"> F  </i>
  <i type="logical" name="LCHARG"> F  </i>
 </incar>
 <kpoints>
  <generation param="Monkhorst-Pack">
   <v type="int" name="divisions">       3        3        2 </v>
   <v name="usershift">      0.00000000       0.00000000       0.00000000 </v>
   <v name="genvec1">      0.33333333       0.00000000       0.00000000 </v>
   <v name="genvec2">      0.00000000       0.33333333       0.00000000 </v>
   <v name="genvec3">      0.00000000       0.00000000       0.50000000 </v>
   <v name="shift">      0.00000000       0.00000000       0.50000000 </v>
  </generation>
  <varray name="kpointlist" >
   <v>       0.00000000       0.00000000       0.25000000 </v>
   <v>       0.33333333       0.00000000       0.25000000 </v>
   <v>      -0.33333333       0.00000000       0.25000000 </v>
   <v>       0.00000000       0.33333333       0.25000000 </v>
   <v>       0.33333333       0.33333333       0.25000000 </v>
   <v>      -0.33333333       0.33333333       0.25000000 </v>
   <v>       0.00000000      -0.33333333       0.25000000 </v>
   <v>       0.33333333      -0.33333333       0.25000000 </v>
   <v>      -0.33333333      -0.33333333       0.25000000 </v>
  </varray>
  <varray name="weights" >
   <v>       0.11111111 </v>
   <v>       0.11111111 </v>
   <v>       0.11111111 </v>
   <v>       0.11111111 </v>
   <v>       0.11111111 </v>
   <v>       0.11111111 </v>
   <v>       0.11111111 </v>
   <v>       0.11111111 </v>
   <v>       0.11111111 </v>
  </varray>
 </kpoints>
 <parameters>
  <separator name="general" >
   <i type="string" name="SYSTEM">unknown system</i>
   <i type="logical" name="LCOMPAT"> F  </i>
  </separator>
  <separator name="electronic" >
   <i type="string" name="PREC">accura</i>
   <i name="ENMAX">    500.00000000</i>
   <i name="ENAUG">    605.39200000</i>
   <i name="EDIFF">      0.00000001</i>
   <i type="int" name="IALGO">    38</i>
   <i type="int" name="IWAVPR">    10</i>
   <i type="int" name="NBANDS">   172</i>
   <i name="NELECT">    288.00000000</i>
   <i type="int" name="TURBO">     0</i>
   <i type="int" name="IRESTART">     0</i>
   <i type="int" name="NREBOOT">     0</i>
   <i type="int" name="NMIN">     0</i>
   <i name="EREF">      0.00000000</i>
   <separator name="electronic smearing" >
    <i type="int" name="ISMEAR">     0</i>
    <i name="SIGMA">      0.01000000</i>
    <i name="KSPACING">      0.50000000</i>
    <i type="logical" name="KGAMMA"> T  </i>
   </separator>
   <separator name="electronic projectors" >
    <i type="logical" name="LREAL"> F  </i>
    <v name="ROPT">      0.00000000      0.00000000</v>
    <i type="int" name="LMAXPAW">  -100</i>
    <i type="int" name="LMAXMIX">     2</i>
    <i type="logical" name="NLSPLINE"> F  </i>
   </separator>
   <separator name="electronic startup" >
    <i type="int" name="ISTART">     0</i>
    <i type="int" name="ICHARG">     2</i>
    <i type="int" name="INIWAV">     1</i>
   </separator>
   <separator name="electronic spin" >
    <i type="int" name="ISPIN">     1</i>
    <i type="logical" name="LNONCOLLINEAR"> F  </i>
    <v name="MAGMOM">      1.00000000      1.00000000      1.00000000      1.00000000      1.00000000      1.00000000      1.00000000      1.00000000      1.00000000      1.00000000      1.00000000      1.00000000      1.00000000      1.00000000      1.00000000      1.00000000      1.00000000      1.00000000      1.00000000      1.00000000
      1.00000000      1.00000000      1.00000000      1.00000000      1.00000000      1.00000000      1.00000000      1.00000000      1.00000000      1.00000000      1.00000000      1.00000000</v>
    <i name="NUPDOWN">     -1.00000000</i>
    <i type="logical" name="LSORBIT"> F  </i>
    <v name="SAXIS">      0.00000000      0.00000000      1.00000000</v>
    <i type="logical" name="LSPIRAL"> F  </i>
    <v name="QSPIRAL">      0.00000000      0.00000000      0.00000000</v>
    <i type="logical" name="LZEROZ"> F  </i>
   </separator>
   <separator name="electronic exchange-correlation" >
    <i type="logical" name="LASPH"> F  </i>
    <i type="logical" name="LMETAGGA"> F  </i>
   </separator>
   <separator name="electronic convergence" >
    <i type="int" name="NELM">    60</i>
    <i type="int" name="NELMDL">    -5</i>
    <i type="int" name="NELMIN">     5</i>
    <i name="ENINI">    500.00000000</i>
    <separator name="electronic convergence detail" >
     <i type="logical" name="LDIAG"> T  </i>
     <i type="logical" name="LSUBROT"> T  </i>
     <i name="WEIMIN">      0.00000000</i>
     <i name="EBREAK">      0.00000000</i>
     <i name="DEPER">      0.30000000</i>
     <i type="int" name="NRMM">     4</i>
     <i name="TIME">      0.40000000</i>
    </separator>
   </separator>
   <separator name="electronic mixer" >
    <i name="AMIX">      0.40000000</i>
    <i name="BMIX">      1.00000000</i>
    <i name="AMIN">      0.10000000</i>
    <i name="AMIX_MAG">      1.60000000</i>
    <i name="BMIX_MAG">      1.00000000</i>
    <separator name="electronic mixer details" >
     <i type="int" name="IMIX">     4</i>
     <i type="int" name="MAXMIX">   -45</i>
     <i name="WC">    100.00000000</i>
     <i type="int" name="INIMIX">     1</i>
     <i type="int" name="MIXPRE">     1</i>
     <i type="int" name="MREMOVE">     5</i>
    </separator>
   </separator>
   <separator name="electronic dipolcorrection" >
    <i type="logical" name="LDIPOL"> F  </i>
    <i type="logical" name="LMONO"> F  </i>
    <i type="int" name="IDIPOL">     0</i>
    <i name="EPSILON">      1.00000000</i>
    <v name="DIPOL">   -100.00000000   -100.00000000   -100.00000000</v>
    <i name="EFIELD">      0.00000000</i>
   </separator>
  </separator>
  <separator name="grids" >
   <i type="int" name="NGX">    48</i>
   <i type="int" name="NGY">    48</i>
   <i type="int" name="NGZ">    80</i>
   <i type="int" name="NGXF">    96</i>
   <i type="int" name="NGYF">    96</i>
   <i type="int" name="NGZF">   160</i>
   <i type="logical" name="ADDGRID"> T  </i>
  </separator>
  <separator name="ionic" >
   <i type="int" name="NSW">     0</i>
   <i type="int" name="IBRION">    -1</i>
   <i type="int" name="ISIF">     2</i>
   <i name="PSTRESS">      0.00000000</i>
   <i name="EDIFFG">      0.00000010</i>
   <i type="int" name="NFREE">     0</i>
   <i name="POTIM">      0.50000000</i>
   <i name="SMASS">     -3.00000000</i>
   <i name="SCALEE">      1.00000000</i>
  </separator>
  <separator name="ionic md" >
   <i name="TEBEG">      0.00010000</i>
   <i name="TEEND">      0.00010000</i>
   <i type="int" name="NBLOCK">     1</i>
   <i type="int" name="KBLOCK">     1</i>
   <i type="int" name="NPACO">   256</i>
   <i name="APACO">     16.00000000</i>
  </separator>
  <separator name="symmetry" >
   <i type="int" name="ISYM">     2</i>
   <i name="SYMPREC">      0.00001000</i>
  </separator>
  <separator name="dos" >
   <i type="logical" name="LORBIT"> F  </i>
   <v name="RWIGS">     -1.00000000     -1.00000000</v>
   <i type="int" name="NEDOS">   301</i>
   <i name="EMIN">     10.00000000</i>
   <i name="EMAX">    -10.00000000</i>
   <i name="EFERMI">      0.00000000</i>
  </separator>
  <separator name="writing" >
   <i type="int" name="NWRITE">     2</i>
   <i type="logical" name="LWAVE"> F  </i>
   <i type="logical" name="LCHARG"> F  </i>
   <i type="logical" name="LPARD"> F  </i>
   <i type="logical" name="LVTOT"> F  </i>
   <i type="logical" name="LVHAR"> F  </i>
   <i type="logical" name="LELF"> F  </i>
   <i type="logical" name="LOPTICS"> F  </i>
   <v name="STM">      0.00000000      0.00000000      0.00000000      0.00000000      0.00000000      0.00000000      0.00000000</v>
  </separator>
  <separator name="performance" >
   <i type="int" name="NPAR">     4</i>
   <i type="int" name="NSIM">     4</i>
   <i type="int" name="NBLK">    -1</i>
   <i type="logical" name="LPLANE"> T  </i>
   <i type="logical" name="LSCALAPACK"> F  </i>
   <i type="logical" name="LSCAAWARE"> F  </i>
   <i type="logical" name="LSCALU"> F  </i>
   <i type="logical" name="LASYNC"> F  </i>
   <i type="logical" name="LORBITALREAL"> F  </i>
  </separator>
  <separator name="miscellaneous" >
   <i type="int" name="IDIOT">     3</i>
   <i type="logical" name="LMUSIC"> F  </i>
   <v name="POMASS">     65.39000000     16.00000000</v>
   <v name="DARWINR">      0.00000000      0.00000000</v>
   <v name="DARWINV">      1.00000000      1.00000000</v>
   <i type="logical" name="LCORR"> T  </i>
  </separator>
  <i type="logical" name="GGA_COMPAT"> T  </i>
  <i type="logical" name="LBERRY"> F  </i>
  <i type="int" name="ICORELEVEL">     0</i>
  <i type="logical" name="LDAU"> F  </i>
  <i type="int" name="I_CONSTRAINED_M">     0</i>
  <separator name="electronic exchange-correlation" >
   <i type="string" name="GGA">--</i>
   <i type="int" name="VOSKOWN">     0</i>
   <i type="logical" name="LHFCALC"> F  </i>
   <i type="string" name="PRECFOCK"></i>
   <i type="logical" name="LHFONE"> F  </i>
   <i type="logical" name="LRHFCALC"> F  </i>
   <i type="logical" name="LTHOMAS"> F  </i>
   <i type="logical" name="LMODELHF"> F  </i>
   <i name="ENCUT4O">     -1.00000000</i>
   <i type="int" name="EXXOEP">     0</i>
   <i type="int" name="FOURORBIT">     0</i>
   <i name="AEXX">      0.00000000</i>
   <i name="HFALPHA">      0.00000000</i>
   <i name="ALDAX">      1.00000000</i>
   <i name="AGGAX">      1.00000000</i>
   <i name="ALDAC">      1.00000000</i>
   <i name="AGGAC">      1.00000000</i>
   <i type="int" name="NKREDX">     1</i>
   <i type="int" name="NKREDY">     1</i>
   <i type="int" name="NKREDZ">     1</i>
   <i type="logical" name="SHIFTRED"> F  </i>
   <i type="logical" name="ODDONLY"> F  </i>
   <i type="logical" name="EVENONLY"> F  </i>
   <i type="int" name="LMAXFOCK">     0</i>
   <i type="int" name="NMAXFOCKAE">     0</i>
   <i type="logical" name="LFOCKAEDFT"> F  </i>
   <i name="HFSCREEN">      0.00000000</i>
   <i name="HFSCREENC">      0.00000000</i>
  </separator>
  <separator name="vdW DFT" >
   <i type="logical" name="LUSE_VDW"> F  </i>
   <i name="Zab_VDW">     -0.84910000</i>
   <i name="PARAM1">      0.12340000</i>
   <i name="PARAM2">      1.00000000</i>
   <i name="PARAM3">      0.00000000</i>
  </separator>
  <separator name="model GW" >
   <i type="int" name="MODEL_GW">     0</i>
   <i name="MODEL_EPS0">      7.44589063</i>
   <i name="MODEL_ALPHA">      1.00000000</i>
  </separator>
  <separator name="linear response parameters" >
   <i type="logical" name="LEPSILON"> F  </i>
   <i type="logical" name="LRPA"> F  </i>
   <i type="logical" name="LNABLA"> F  </i>
   <i type="logical" name="LVEL"> F  </i>
   <i type="int" name="KINTER">     0</i>
   <i name="CSHIFT">      0.10000000</i>
   <i name="OMEGAMAX">     -1.00000000</i>
  </separator>
  <separator name="orbital magnetization" >
   <i type="logical" name="NUCIND"> F  </i>
   <v name="MAGPOS">      0.00000000      0.00000000      0.00000000</v>
   <i type="logical" name="LNICSALL"> T  </i>
   <i type="logical" name="ORBITALMAG"> F  </i>
   <i type="logical" name="LMAGBLOCH"> F  </i>
   <i type="logical" name="LCHIMAG"> F  </i>
   <i type="logical" name="LGAUGE"> T  </i>
   <i type="int" name="MAGATOM">     0</i>
   <v name="MAGDIPOL">      0.00000000      0.00000000      0.00000000</v>
   <v name="AVECCONST">      0.00000000      0.00000000      0.00000000</v>
  </separator>
  <separator name="response functions" >
   <i type="logical" name="LADDER"> F  </i>
   <i type="logical" name="LHARTREE"> T  </i>
   <i type="int" name="IBSE">     0</i>
   <i type="logical" name="LTCTE"> F  </i>
   <i type="logical" name="LTETE"> F  </i>
   <i type="logical" name="LFXCEPS"> F  </i>
   <i type="logical" name="L2ORDER"> F  </i>
   <i type="logical" name="LUSEW"> F  </i>
   <i name="ENCUTGW">     -2.00000000</i>
   <i name="ENCUTGWSOFT">     -2.00000000</i>
   <i name="ENCUTLF">     -1.00000000</i>
   <i type="int" name="LMAXMP2">    -1</i>
   <i name="SCISSOR">      0.00000000</i>
   <i type="int" name="NOMEGA">     0</i>
   <i type="int" name="NOMEGAR">     0</i>
   <i type="int" name="NBANDSGW">    -1</i>
   <i type="int" name="NBANDSO">    -1</i>
   <i type="int" name="NBANDSV">    -1</i>
   <i name="OPTEMAX">      0.00000000</i>
   <i type="int" name="NELM">     1</i>
   <i type="int" name="DIM">     3</i>
   <i type="int" name="ANTIRES">     0</i>
   <i name="OMEGAMAX">    -30.00000000</i>
   <i name="OMEGATL">   -200.00000000</i>
   <i type="int" name="OMEGAGRID">     0</i>
   <i name="CSHIFT">     -0.10000000</i>
   <i type="logical" name="SELFENERGY"> F  </i>
   <i type="logical" name="LSPECTRAL"> F  </i>
   <i type="logical" name="ODDONLYGW"> F  </i>
   <i type="logical" name="EVENONLYGW"> F  </i>
   <i type="int" name="NKREDLFX">     1</i>
   <i type="int" name="NKREDLFY">     1</i>
   <i type="int" name="NKREDLFZ">     1</i>
   <i type="int" name="MAXMEM">  1800</i>
   <i type="int" name="TELESCOPE">     0</i>
  </separator>
 </parameters>
 <atominfo>
  <atoms>      32 </atoms>
  <types>       2 </types>
  <array name="atoms" >
   <dimension dim="1">ion</dimension>
   <field type="string">element</field>
   <field type="int">atomtype</field>
   <set>
    <rc><c>Zn</c><c>   1</c></rc>
    <rc><c>Zn</c><c>   1</c></rc>
    <rc><c>Zn</c><c>   1</c></rc>
    <rc><c>Zn</c><c>   1</c></rc>
    <rc><c>Zn</c><c>   1</c></rc>
    <rc><c>Zn</c><c>   1</c></rc>
    <rc><c>Zn</c><c>   1</c></rc>
    <rc><c>Zn</c><c>   1</c></rc>
    <rc><c>Zn</c><c>   1</c></rc>
    <rc><c>Zn</c><c>   1</c></rc>
    <rc><c>Zn</c><c>   1</c></rc>
    <rc><c>Zn</c><c>   1</c></rc>
    <rc><c>Zn</c><c>   1</c></rc>
    <rc><c>Zn</c><c>   1</c></rc>
    <rc><c>Zn</c><c>   1</c></rc>
    <rc><c>Zn</c><c>   1</c></rc>
    <rc><c>O </c><c>   2</c></rc>
    <rc><c>O </c><c>   2</c></rc>
    <rc><c>O </c><c>   2</c></rc>
    <rc><c>O </c><c>   2</c></rc>
    <rc><c>O </c><c>   2</c></rc>
    <rc><c>O </c><c>   2</c></rc>
    <rc><c>O </c><c>   2</c></rc>
    <rc><c>O </c><c>   2</c></rc>
    <rc><c>O </c><c>   2</c></rc>
    <rc><c>O </c><c>   2</c></rc>
    <rc><c>O </c><c>   2</c></rc>
    <rc><c>O </c><c>   2</c></rc>
    <rc><c>O </c><c>   2</c></rc>
    <rc><c>O </c><c>   2</c></rc>
    <rc><c>O </c><c>   2</c></rc>
    <rc><c>O </c><c>   2</c></rc>
   </set>
  </array>
  <array name="atomtypes" >
   <dimension dim="1">type</dimension>
   <field type="int">atomspertype</field>
   <field type="string">element</field>
   <field>mass</field>
   <field>valence</field>
   <field type="string">pseudopotential</field>
   <set>
    <rc><c>  16</c><c>Zn</c><c>     65.39000000</c><c>     12.00000000</c><c>  PAW_PBE Zn 06Sep2000                  </c></rc>
    <rc><c>  16</c><c>O </c><c>     16.00000000</c><c>      6.00000000</c><c>  PAW_PBE O 08Apr2002                   </c></rc>
   </set>
  </array>
 </atominfo>
 <structure name="initialpos" >
  <crystal>
   <varray name="basis" >
    <v>       6.57433747       0.00000000       0.00000000 </v>
    <v>      -3.28716874       5.69354326       0.00000000 </v>
    <v>       0.00000000       0.00000000      10.60915421 </v>
   </varray>
   <i name="volume">    397.11416701 </i>
   <varray name="rec_basis" >
    <v>       0.15210658       0.08781878       0.00000000 </v>
    <v>       0.00000000       0.17563755       0.00000000 </v>
    <v>       0.00000000       0.00000000       0.09425822 </v>
   </varray>
  </crystal>
  <varray name="positions" >
   <v>       0.16818773       0.33333333       0.49984072 </v>
   <v>       0.66666667       0.33333333       0.49984072 </v>
   <v>       0.16666667       0.83333333       0.49984072 </v>
   <v>       0.66666667       0.83333333       0.49984072 </v>
   <v>       0.16666667       0.33333333       0.99984072 </v>
   <v>       0.66666667       0.33333333       0.99984072 </v>
   <v>       0.16666667       0.83333333       0.99984072 </v>
   <v>       0.66666667       0.83333333       0.99984072 </v>
   <v>       0.33333333       0.16666667       0.24984072 </v>
   <v>       0.83333333       0.16666667       0.24984072 </v>
   <v>       0.33333333       0.66666667       0.24984072 </v>
   <v>       0.83333333       0.66666667       0.24984072 </v>
   <v>       0.33333333       0.16666667       0.74984072 </v>
   <v>       0.83333333       0.16666667       0.74984072 </v>
   <v>       0.33333333       0.66666667       0.74984072 </v>
   <v>       0.83333333       0.66666667       0.74984072 </v>
   <v>       0.16666667       0.33333333       0.18938078 </v>
   <v>       0.66666667       0.33333333       0.18938078 </v>
   <v>       0.16666667       0.83333333       0.18938078 </v>
   <v>       0.66666667       0.83333333       0.18938078 </v>
   <v>       0.16666667       0.33333333       0.68938078 </v>
   <v>       0.66666667       0.33333333       0.68938078 </v>
   <v>       0.16666667       0.83333333       0.68938078 </v>
   <v>       0.66666667       0.83333333       0.68938078 </v>
   <v>       0.33333333       0.16666667       0.43938078 </v>
   <v>       0.83333333       0.16666667       0.43938078 </v>
   <v>       0.33333333       0.66666667       0.43938078 </v>
   <v>       0.83333333       0.66666667       0.43938078 </v>
   <v>       0.33333333       0.16666667       0.93938078 </v>
   <v>       0.83333333       0.16666667       0.93938078 </v>
   <v>       0.33333333       0.66666667       0.93938078 </v>
   <v>       0.83333333       0.66666667       0.93938078 </v>
  </varray>
 </structure>
 <calculation>
  <scstep>
   <time name="dav">   26.36   26.48</time>
   <time name="total">   27.08   27.21</time>
   <energy>
    <i name="alphaZ">   1799.23583163 </i>
    <i name="ewald"> -23373.12041554 </i>
    <i name="hartreedc"> -10485.45900360 </i>
    <i name="XCdc">   1354.61900639 </i>
    <i name="pawpsdc">  28828.45806008 </i>
    <i name="pawaedc"> -31698.27888332 </i>
    <i name="eentropy">     -0.00058378 </i>
    <i name="bandstr">   2549.85856894 </i>
    <i name="atom">  34899.00822898 </i>
    <i name="e_fr_energy">   3874.32080978 </i>
    <i name="e_wo_entrp">   3874.32139356 </i>
    <i name="e_0_energy">   3874.32110167 </i>
   </energy>
  </scstep>
  <scstep>
   <time name="dav">   26.50   29.26</time>
   <time name="total">   26.50   29.27</time>
   <energy>
    <i name="e_fr_energy">    759.38282664 </i>
    <i name="e_wo_entrp">    759.38282664 </i>
    <i name="e_0_energy">    759.38282664 </i>
   </energy>
  </scstep>
  <scstep>
   <time name="dav">   27.13   27.25</time>
   <time name="total">   27.13   27.25</time>
   <energy>
    <i name="e_fr_energy">    -65.64217115 </i>
    <i name="e_wo_entrp">    -65.64217115 </i>
    <i name="e_0_energy">    -65.64217115 </i>
   </energy>
  </scstep>
  <scstep>
   <time name="dav">   28.67   28.78</time>
   <time name="total">   28.67   28.79</time>
   <energy>
    <i name="e_fr_energy">   -166.06039053 </i>
    <i name="e_wo_entrp">   -166.06039053 </i>
    <i name="e_0_energy">   -166.06039053 </i>
   </energy>
  </scstep>
  <scstep>
   <time name="dav">   28.45   28.55</time>
   <time name="total">   30.38   30.49</time>
   <energy>
    <i name="e_fr_energy">   -168.81136931 </i>
    <i name="e_wo_entrp">   -168.81136931 </i>
    <i name="e_0_energy">   -168.81136931 </i>
   </energy>
  </scstep>
  <scstep>
   <time name="dav">   37.58   37.71</time>
   <time name="total">   40.29   40.44</time>
   <energy>
    <i name="e_fr_energy">   -141.23370215 </i>
    <i name="e_wo_entrp">   -141.23370215 </i>
    <i name="e_0_energy">   -141.23370215 </i>
   </energy>
  </scstep>
  <scstep>
   <time name="dav">   27.90   28.00</time>
   <time name="total">   31.40   31.51</time>
   <energy>
    <i name="e_fr_energy">   -143.21866028 </i>
    <i name="e_wo_entrp">   -143.21866028 </i>
    <i name="e_0_energy">   -143.21866028 </i>
   </energy>
  </scstep>
  <scstep>
   <time name="dav">   33.92   34.04</time>
   <time name="total">   36.61   36.75</time>
   <energy>
    <i name="e_fr_energy">   -143.66564854 </i>
    <i name="e_wo_entrp">   -143.66564854 </i>
    <i name="e_0_energy">   -143.66564854 </i>
   </energy>
  </scstep>
  <scstep>
   <time name="dav">   38.09   38.23</time>
   <time name="total">   41.05   41.20</time>
   <energy>
    <i name="e_fr_energy">   -142.81332913 </i>
    <i name="e_wo_entrp">   -142.81332913 </i>
    <i name="e_0_energy">   -142.81332913 </i>
   </energy>
  </scstep>
  <scstep>
   <time name="dav">   28.05   28.16</time>
   <time name="total">   30.74   30.86</time>
   <energy>
    <i name="e_fr_energy">   -142.85964473 </i>
    <i name="e_wo_entrp">   -142.85964473 </i>
    <i name="e_0_energy">   -142.85964473 </i>
   </energy>
  </scstep>
  <scstep>
   <time name="dav">   30.97   31.08</time>
   <time name="total">   33.67   33.80</time>
   <energy>
    <i name="e_fr_energy">   -142.85980405 </i>
    <i name="e_wo_entrp">   -142.85980405 </i>
    <i name="e_0_energy">   -142.85980405 </i>
   </energy>
  </scstep>
  <scstep>
   <time name="dav">   31.91   32.02</time>
   <time name="total">   34.62   34.75</time>
   <energy>
    <i name="e_fr_energy">   -142.85979647 </i>
    <i name="e_wo_entrp">   -142.85979647 </i>
    <i name="e_0_energy">   -142.85979647 </i>
   </energy>
  </scstep>
  <scstep>
   <time name="dav">   28.23   28.33</time>
   <time name="total">   30.94   31.05</time>
   <energy>
    <i name="e_fr_energy">   -142.85990795 </i>
    <i name="e_wo_entrp">   -142.85990795 </i>
    <i name="e_0_energy">   -142.85990795 </i>
   </energy>
  </scstep>
  <scstep>
   <time name="dav">   33.18   33.30</time>
   <time name="total">   36.01   36.15</time>
   <energy>
    <i name="e_fr_energy">   -142.86002146 </i>
    <i name="e_wo_entrp">   -142.86002146 </i>
    <i name="e_0_energy">   -142.86002146 </i>
   </energy>
  </scstep>
  <scstep>
   <time name="dav">   31.82   31.93</time>
   <time name="total">   34.66   34.79</time>
   <energy>
    <i name="e_fr_energy">   -142.85997847 </i>
    <i name="e_wo_entrp">   -142.85997847 </i>
    <i name="e_0_energy">   -142.85997847 </i>
   </energy>
  </scstep>
  <scstep>
   <time name="dav">   29.52   29.65</time>
   <time name="total">   32.15   32.30</time>
   <energy>
    <i name="e_fr_energy">   -142.85995781 </i>
    <i name="e_wo_entrp">   -142.85995781 </i>
    <i name="e_0_energy">   -142.85995781 </i>
   </energy>
  </scstep>
  <scstep>
   <time name="dav">   32.47   32.59</time>
   <time name="total">   35.51   35.64</time>
   <energy>
    <i name="e_fr_energy">   -142.85995680 </i>
    <i name="e_wo_entrp">   -142.85995680 </i>
    <i name="e_0_energy">   -142.85995680 </i>
   </energy>
  </scstep>
  <scstep>
   <time name="dav">   28.50   28.60</time>
   <time name="total">   31.21   31.33</time>
   <energy>
    <i name="e_fr_energy">   -142.85995662 </i>
    <i name="e_wo_entrp">   -142.85995662 </i>
    <i name="e_0_energy">   -142.85995662 </i>
   </energy>
  </scstep>
  <scstep>
   <time name="dav">   27.92   28.02</time>
   <time name="total">   30.61   30.72</time>
   <energy>
    <i name="e_fr_energy">   -142.85995637 </i>
    <i name="e_wo_entrp">   -142.85995637 </i>
    <i name="e_0_energy">   -142.85995637 </i>
   </energy>
  </scstep>
  <scstep>
   <time name="dav">   31.20   31.32</time>
   <time name="total">   33.89   34.02</time>
   <energy>
    <i name="e_fr_energy">   -142.85995602 </i>
    <i name="e_wo_entrp">   -142.85995602 </i>
    <i name="e_0_energy">   -142.85995602 </i>
   </energy>
  </scstep>
  <scstep>
   <time name="dav">   27.82   27.92</time>
   <time name="total">   30.51   30.63</time>
   <energy>
    <i name="e_fr_energy">   -142.85995592 </i>
    <i name="e_wo_entrp">   -142.85995592 </i>
    <i name="e_0_energy">   -142.85995592 </i>
   </energy>
  </scstep>
  <scstep>
   <time name="dav">   19.03   19.09</time>
   <time name="total">   19.74   19.81</time>
   <energy>
    <i name="alphaZ">   1799.23583163 </i>
    <i name="ewald"> -23373.12041554 </i>
    <i name="hartreedc"> -10672.31330642 </i>
    <i name="XCdc">   1371.03122529 </i>
    <i name="pawpsdc">  32546.50059317 </i>
    <i name="pawaedc"> -35436.39273650 </i>
    <i name="eentropy">      0.00000000 </i>
    <i name="bandstr">  -1276.80937652 </i>
    <i name="atom">  34899.00822898 </i>
    <i name="e_fr_energy">   -142.85995592 </i>
    <i name="e_wo_entrp">   -142.85995592 </i>
    <i name="e_0_energy">   -142.85995592 </i>
   </energy>
  </scstep>
  <parameters_embedded>
   <separator name="dft+d2" >
    <i type="logical" name="LVDW"> F  </i>
   </separator>
  </parameters_embedded>
  <structure>
   <crystal>
    <varray name="basis" >
     <v>       6.57433747       0.00000000       0.00000000 </v>
     <v>      -3.28716874       5.69354326       0.00000000 </v>
     <v>       0.00000000       0.00000000      10.60915421 </v>
    </varray>
    <i name="volume">    397.11416701 </i>
    <varray name="rec_basis" >
     <v>       0.15210658       0.08781878       0.00000000 </v>
     <v>       0.00000000       0.17563755       0.00000000 </v>
     <v>       0.00000000       0.00000000       0.09425822 </v>
    </varray>
   </crystal>
   <varray name="positions" >
    <v>       0.16818773       0.33333333       0.49984072 </v>
    <v>       0.66666667       0.33333333       0.49984072 </v>
    <v>       0.16666667       0.83333333       0.49984072 </v>
    <v>       0.66666667       0.83333333       0.49984072 </v>
    <v>       0.16666667       0.33333333       0.99984072 </v>
    <v>       0.66666667       0.33333333       0.99984072 </v>
    <v>       0.16666667       0.83333333       0.99984072 </v>
    <v>       0.66666667       0.83333333       0.99984072 </v>
    <v>       0.33333333       0.16666667       0.24984072 </v>
    <v>       0.83333333       0.16666667       0.24984072 </v>
    <v>       0.33333333       0.66666667       0.24984072 </v>
    <v>       0.83333333       0.66666667       0.24984072 </v>
    <v>       0.33333333       0.16666667       0.74984072 </v>
    <v>       0.83333333       0.16666667       0.74984072 </v>
    <v>       0.33333333       0.66666667       0.74984072 </v>
    <v>       0.83333333       0.66666667       0.74984072 </v>
    <v>       0.16666667       0.33333333       0.18938078 </v>
    <v>       0.66666667       0.33333333       0.18938078 </v>
    <v>       0.16666667       0.83333333       0.18938078 </v>
    <v>       0.66666667       0.83333333       0.18938078 </v>
    <v>       0.16666667       0.33333333       0.68938078 </v>
    <v>       0.66666667       0.33333333       0.68938078 </v>
    <v>       0.16666667       0.83333333       0.68938078 </v>
    <v>       0.66666667       0.83333333       0.68938078 </v>
    <v>       0.33333333       0.16666667       0.43938078 </v>
    <v>       0.83333333       0.16666667       0.43938078 </v>
    <v>       0.33333333       0.66666667       0.43938078 </v>
    <v>       0.83333333       0.66666667       0.43938078 </v>
    <v>       0.33333333       0.16666667       0.93938078 </v>
    <v>       0.83333333       0.16666667       0.93938078 </v>
    <v>       0.33333333       0.66666667       0.93938078 </v>
    <v>       0.83333333       0.66666667       0.93938078 </v>
   </varray>
  </structure>
  <varray name="forces" >
   <v>      -0.09755289       0.00154199       0.00157026 </v>
   <v>       0.02588159      -0.00000298       0.00053842 </v>
   <v>       0.00162093      -0.01404404       0.00337726 </v>
   <v>       0.00157154       0.01399123      -0.00227628 </v>
   <v>       0.00032419      -0.00000699       0.00054100 </v>
   <v>      -0.00024984      -0.00000937       0.00054188 </v>
   <v>       0.00003093       0.00015146      -0.00009488 </v>
   <v>       0.00002601      -0.00016982       0.00117708 </v>
   <v>       0.00088523      -0.00033474      -0.01048745 </v>
   <v>       0.00088291       0.00033880       0.01153495 </v>
   <v>       0.00030107      -0.00000026       0.00056234 </v>
   <v>      -0.00078188       0.00001060       0.00053023 </v>
   <v>       0.00086345      -0.00033215       0.00527413 </v>
   <v>       0.00090468       0.00034072      -0.00416964 </v>
   <v>       0.00030117      -0.00001312       0.00053019 </v>
   <v>      -0.00078219       0.00001851       0.00054841 </v>
   <v>       0.00265743      -0.00000635      -0.00055201 </v>
   <v>      -0.00274748       0.00000032      -0.00054231 </v>
   <v>       0.00012776       0.00166178       0.00161343 </v>
   <v>       0.00013569      -0.00166254      -0.00270070 </v>
   <v>       0.00426673       0.00003487      -0.00070188 </v>
   <v>      -0.00301581      -0.00000116      -0.00055540 </v>
   <v>      -0.00009066       0.00169856      -0.00241440 </v>
   <v>      -0.00007506      -0.00168628       0.00132716 </v>
   <v>       0.03287853      -0.01870989      -0.01342149 </v>
   <v>       0.03099444       0.01736204       0.01142517 </v>
   <v>       0.00070590      -0.00017181      -0.00045885 </v>
   <v>      -0.00030028      -0.00000776      -0.00053759 </v>
   <v>       0.00013559      -0.00038626      -0.00019300 </v>
   <v>       0.00013565       0.00039542      -0.00089935 </v>
   <v>      -0.00054257       0.00000026      -0.00053796 </v>
   <v>       0.00050726      -0.00000104      -0.00054872 </v>
  </varray>
  <varray name="stress" >
   <v>      -0.15821856      -0.24857993      -0.15626023 </v>
   <v>      -0.24868977      -0.16472894       0.00458671 </v>
   <v>      -0.15623939       0.00437603      -0.14502683 </v>
  </varray>
  <energy>
   <i name="e_fr_energy">   -142.85995592 </i>
   <i name="e_wo_entrp">   -142.85995592 </i>
   <i name="e_0_energy">      0.00000000 </i>
  </energy>
  <time name="totalsc">  736.12  741.67</time>
  <eigenvalues>
   <array>
    <dimension dim="1">band</dimension>
    <dimension dim="2">kpoint</dimension>
    <dimension dim="3">spin</dimension>
    <field>eigene</field>
    <field>occ</field>
    <set>
     <set comment="spin 1">
      <set comment="kpoint 1">
       <r>  -16.9048    1.0000 </r>
       <r>  -16.7324    1.0000 </r>
       <r>  -16.4805    1.0000 </r>
       <r>  -16.3002    1.0000 </r>
       <r>  -16.2941    1.0000 </r>
       <r>  -16.2921    1.0000 </r>
       <r>  -16.2880    1.0000 </r>
       <r>  -16.2362    1.0000 </r>
       <r>  -16.2324    1.0000 </r>
       <r>  -16.2285    1.0000 </r>
       <r>  -16.1585    1.0000 </r>
       <r>  -16.1548    1.0000 </r>
       <r>  -16.1509    1.0000 </r>
       <r>  -16.1089    1.0000 </r>
       <r>  -16.1057    1.0000 </r>
       <r>  -16.1011    1.0000 </r>
       <r>   -4.9934    1.0000 </r>
       <r>   -4.9931    1.0000 </r>
       <r>   -4.9930    1.0000 </r>
       <r>   -4.9424    1.0000 </r>
       <r>   -4.9421    1.0000 </r>
       <r>   -4.9418    1.0000 </r>
       <r>   -4.8797    1.0000 </r>
       <r>   -4.8793    1.0000 </r>
       <r>   -4.8788    1.0000 </r>
       <r>   -4.8196    1.0000 </r>
       <r>   -4.7945    1.0000 </r>
       <r>   -4.6905    1.0000 </r>
       <r>   -4.6899    1.0000 </r>
       <r>   -4.6886    1.0000 </r>
       <r>   -4.6667    1.0000 </r>
       <r>   -4.6651    1.0000 </r>
       <r>   -4.6570    1.0000 </r>
       <r>   -4.6338    1.0000 </r>
       <r>   -4.6327    1.0000 </r>
       <r>   -4.5795    1.0000 </r>
       <r>   -4.5657    1.0000 </r>
       <r>   -4.5650    1.0000 </r>
       <r>   -4.5004    1.0000 </r>
       <r>   -4.4999    1.0000 </r>
       <r>   -4.4199    1.0000 </r>
       <r>   -4.4186    1.0000 </r>
       <r>   -4.4174    1.0000 </r>
       <r>   -4.3074    1.0000 </r>
       <r>   -4.3062    1.0000 </r>
       <r>   -4.3050    1.0000 </r>
       <r>   -4.1283    1.0000 </r>
       <r>   -4.1270    1.0000 </r>
       <r>   -4.1264    1.0000 </r>
       <r>   -4.1248    1.0000 </r>
       <r>   -4.1238    1.0000 </r>
       <r>   -4.1227    1.0000 </r>
       <r>   -4.1183    1.0000 </r>
       <r>   -4.1173    1.0000 </r>
       <r>   -4.1162    1.0000 </r>
       <r>   -4.0760    1.0000 </r>
       <r>   -4.0752    1.0000 </r>
       <r>   -4.0745    1.0000 </r>
       <r>   -4.0601    1.0000 </r>
       <r>   -4.0593    1.0000 </r>
       <r>   -4.0583    1.0000 </r>
       <r>   -3.9581    1.0000 </r>
       <r>   -3.9571    1.0000 </r>
       <r>   -3.9562    1.0000 </r>
       <r>   -3.5994    1.0000 </r>
       <r>   -3.5989    1.0000 </r>
       <r>   -3.5342    1.0000 </r>
       <r>   -3.5339    1.0000 </r>
       <r>   -3.5315    1.0000 </r>
       <r>   -3.5314    1.0000 </r>
       <r>   -3.5313    1.0000 </r>
       <r>   -3.4599    1.0000 </r>
       <r>   -3.4599    1.0000 </r>
       <r>   -3.4489    1.0000 </r>
       <r>   -3.4488    1.0000 </r>
       <r>   -3.4486    1.0000 </r>
       <r>   -3.4384    1.0000 </r>
       <r>   -3.4383    1.0000 </r>
       <r>   -3.4382    1.0000 </r>
       <r>   -3.4224    1.0000 </r>
       <r>   -3.4220    1.0000 </r>
       <r>   -3.4151    1.0000 </r>
       <r>   -3.4150    1.0000 </r>
       <r>   -3.4149    1.0000 </r>
       <r>   -3.3913    1.0000 </r>
       <r>   -3.3909    1.0000 </r>
       <r>   -3.3906    1.0000 </r>
       <r>   -3.3816    1.0000 </r>
       <r>   -3.3815    1.0000 </r>
       <r>   -3.3815    1.0000 </r>
       <r>   -3.3173    1.0000 </r>
       <r>   -3.3168    1.0000 </r>
       <r>   -3.3163    1.0000 </r>
       <r>   -3.3032    1.0000 </r>
       <r>   -3.3028    1.0000 </r>
       <r>   -3.3023    1.0000 </r>
       <r>   -2.9657    1.0000 </r>
       <r>   -2.8836    1.0000 </r>
       <r>   -2.8826    1.0000 </r>
       <r>   -2.8817    1.0000 </r>
       <r>   -2.8608    1.0000 </r>
       <r>   -2.8594    1.0000 </r>
       <r>   -2.8579    1.0000 </r>
       <r>   -2.7720    1.0000 </r>
       <r>   -2.7710    1.0000 </r>
       <r>   -2.7699    1.0000 </r>
       <r>   -2.6108    1.0000 </r>
       <r>   -2.6100    1.0000 </r>
       <r>   -2.6091    1.0000 </r>
       <r>   -1.9728    1.0000 </r>
       <r>   -1.7019    1.0000 </r>
       <r>   -1.6998    1.0000 </r>
       <r>   -1.6977    1.0000 </r>
       <r>   -1.2280    1.0000 </r>
       <r>   -1.2264    1.0000 </r>
       <r>   -1.2248    1.0000 </r>
       <r>   -0.8524    1.0000 </r>
       <r>   -0.8509    1.0000 </r>
       <r>   -0.8492    1.0000 </r>
       <r>   -0.8366    1.0000 </r>
       <r>   -0.8352    1.0000 </r>
       <r>   -0.8339    1.0000 </r>
       <r>   -0.7898    1.0000 </r>
       <r>   -0.3336    1.0000 </r>
       <r>   -0.3333    1.0000 </r>
       <r>   -0.3327    1.0000 </r>
       <r>   -0.3309    1.0000 </r>
       <r>   -0.3301    1.0000 </r>
       <r>   -0.3299    1.0000 </r>
       <r>   -0.2576    1.0000 </r>
       <r>   -0.2561    1.0000 </r>
       <r>   -0.2545    1.0000 </r>
       <r>    0.0056    1.0000 </r>
       <r>    0.0067    1.0000 </r>
       <r>    0.0077    1.0000 </r>
       <r>    0.1207    1.0000 </r>
       <r>    0.1225    1.0000 </r>
       <r>    0.3261    1.0000 </r>
       <r>    0.3271    1.0000 </r>
       <r>    0.3826    1.0000 </r>
       <r>    0.6120    1.0000 </r>
       <r>    0.6123    1.0000 </r>
       <r>    0.8106    1.0000 </r>
       <r>    0.8108    1.0000 </r>
       <r>    1.9809    0.0000 </r>
       <r>    3.4426    0.0000 </r>
       <r>    4.8541    0.0000 </r>
       <r>    5.7716    0.0000 </r>
       <r>    6.2165    0.0000 </r>
       <r>    6.2179    0.0000 </r>
       <r>    6.2193    0.0000 </r>
       <r>    6.3401    0.0000 </r>
       <r>    6.3406    0.0000 </r>
       <r>    6.3412    0.0000 </r>
       <r>    6.8580    0.0000 </r>
       <r>    6.8608    0.0000 </r>
       <r>    6.8635    0.0000 </r>
       <r>    7.5441    0.0000 </r>
       <r>    7.5484    0.0000 </r>
       <r>    7.5527    0.0000 </r>
       <r>    8.4510    0.0000 </r>
       <r>    8.4543    0.0000 </r>
       <r>    8.4576    0.0000 </r>
       <r>    8.8681    0.0000 </r>
       <r>    8.8698    0.0000 </r>
       <r>    8.8714    0.0000 </r>
       <r>    9.0059    0.0000 </r>
       <r>    9.0840    0.0000 </r>
       <r>    9.0842    0.0000 </r>
       <r>    9.0947    0.0000 </r>
       <r>    9.1174    0.0000 </r>
       <r>    9.1182    0.0000 </r>
      </set>
      <set comment="kpoint 2">
       <r>  -16.7725    1.0000 </r>
       <r>  -16.6184    1.0000 </r>
       <r>  -16.4771    1.0000 </r>
       <r>  -16.3960    1.0000 </r>
       <r>  -16.3726    1.0000 </r>
       <r>  -16.3018    1.0000 </r>
       <r>  -16.2963    1.0000 </r>
       <r>  -16.2408    1.0000 </r>
       <r>  -16.2358    1.0000 </r>
       <r>  -16.2334    1.0000 </r>
       <r>  -16.2260    1.0000 </r>
       <r>  -16.1573    1.0000 </r>
       <r>  -16.1519    1.0000 </r>
       <r>  -16.1289    1.0000 </r>
       <r>  -16.1046    1.0000 </r>
       <r>  -16.0990    1.0000 </r>
       <r>   -5.0106    1.0000 </r>
       <r>   -4.9392    1.0000 </r>
       <r>   -4.9135    1.0000 </r>
       <r>   -4.9008    1.0000 </r>
       <r>   -4.8729    1.0000 </r>
       <r>   -4.8723    1.0000 </r>
       <r>   -4.8540    1.0000 </r>
       <r>   -4.8125    1.0000 </r>
       <r>   -4.8042    1.0000 </r>
       <r>   -4.8027    1.0000 </r>
       <r>   -4.7786    1.0000 </r>
       <r>   -4.7776    1.0000 </r>
       <r>   -4.6458    1.0000 </r>
       <r>   -4.6027    1.0000 </r>
       <r>   -4.5894    1.0000 </r>
       <r>   -4.5617    1.0000 </r>
       <r>   -4.5594    1.0000 </r>
       <r>   -4.5456    1.0000 </r>
       <r>   -4.5407    1.0000 </r>
       <r>   -4.5165    1.0000 </r>
       <r>   -4.4807    1.0000 </r>
       <r>   -4.4647    1.0000 </r>
       <r>   -4.4608    1.0000 </r>
       <r>   -4.4172    1.0000 </r>
       <r>   -4.4154    1.0000 </r>
       <r>   -4.3898    1.0000 </r>
       <r>   -4.3888    1.0000 </r>
       <r>   -4.3877    1.0000 </r>
       <r>   -4.3781    1.0000 </r>
       <r>   -4.3554    1.0000 </r>
       <r>   -4.3238    1.0000 </r>
       <r>   -4.2850    1.0000 </r>
       <r>   -4.2680    1.0000 </r>
       <r>   -4.2676    1.0000 </r>
       <r>   -4.2567    1.0000 </r>
       <r>   -4.2383    1.0000 </r>
       <r>   -4.2092    1.0000 </r>
       <r>   -4.2087    1.0000 </r>
       <r>   -4.1241    1.0000 </r>
       <r>   -4.1229    1.0000 </r>
       <r>   -4.1194    1.0000 </r>
       <r>   -4.1109    1.0000 </r>
       <r>   -4.1094    1.0000 </r>
       <r>   -4.0507    1.0000 </r>
       <r>   -3.9943    1.0000 </r>
       <r>   -3.9926    1.0000 </r>
       <r>   -3.9463    1.0000 </r>
       <r>   -3.9453    1.0000 </r>
       <r>   -3.6606    1.0000 </r>
       <r>   -3.6457    1.0000 </r>
       <r>   -3.6277    1.0000 </r>
       <r>   -3.6266    1.0000 </r>
       <r>   -3.6005    1.0000 </r>
       <r>   -3.5488    1.0000 </r>
       <r>   -3.5372    1.0000 </r>
       <r>   -3.5340    1.0000 </r>
       <r>   -3.5310    1.0000 </r>
       <r>   -3.5225    1.0000 </r>
       <r>   -3.5223    1.0000 </r>
       <r>   -3.5141    1.0000 </r>
       <r>   -3.5137    1.0000 </r>
       <r>   -3.4974    1.0000 </r>
       <r>   -3.4718    1.0000 </r>
       <r>   -3.4717    1.0000 </r>
       <r>   -3.4593    1.0000 </r>
       <r>   -3.4417    1.0000 </r>
       <r>   -3.4400    1.0000 </r>
       <r>   -3.4132    1.0000 </r>
       <r>   -3.3960    1.0000 </r>
       <r>   -3.3826    1.0000 </r>
       <r>   -3.3627    1.0000 </r>
       <r>   -3.3624    1.0000 </r>
       <r>   -3.3540    1.0000 </r>
       <r>   -3.3436    1.0000 </r>
       <r>   -3.3432    1.0000 </r>
       <r>   -3.2619    1.0000 </r>
       <r>   -3.2523    1.0000 </r>
       <r>   -3.2518    1.0000 </r>
       <r>   -3.1720    1.0000 </r>
       <r>   -3.1717    1.0000 </r>
       <r>   -2.9222    1.0000 </r>
       <r>   -2.9216    1.0000 </r>
       <r>   -2.9204    1.0000 </r>
       <r>   -2.7690    1.0000 </r>
       <r>   -2.7296    1.0000 </r>
       <r>   -2.7279    1.0000 </r>
       <r>   -2.4790    1.0000 </r>
       <r>   -2.4784    1.0000 </r>
       <r>   -2.3327    1.0000 </r>
       <r>   -2.3279    1.0000 </r>
       <r>   -2.3259    1.0000 </r>
       <r>   -2.1384    1.0000 </r>
       <r>   -2.0184    1.0000 </r>
       <r>   -1.9308    1.0000 </r>
       <r>   -1.8425    1.0000 </r>
       <r>   -1.8405    1.0000 </r>
       <r>   -1.4755    1.0000 </r>
       <r>   -1.4731    1.0000 </r>
       <r>   -1.4075    1.0000 </r>
       <r>   -1.3771    1.0000 </r>
       <r>   -1.3754    1.0000 </r>
       <r>   -1.0400    1.0000 </r>
       <r>   -0.9580    1.0000 </r>
       <r>   -0.8702    1.0000 </r>
       <r>   -0.8686    1.0000 </r>
       <r>   -0.8637    1.0000 </r>
       <r>   -0.7715    1.0000 </r>
       <r>   -0.6512    1.0000 </r>
       <r>   -0.6506    1.0000 </r>
       <r>   -0.5281    1.0000 </r>
       <r>   -0.4053    1.0000 </r>
       <r>   -0.4032    1.0000 </r>
       <r>   -0.3661    1.0000 </r>
       <r>   -0.3613    1.0000 </r>
       <r>   -0.2405    1.0000 </r>
       <r>   -0.2396    1.0000 </r>
       <r>   -0.2026    1.0000 </r>
       <r>   -0.1994    1.0000 </r>
       <r>   -0.1970    1.0000 </r>
       <r>   -0.1288    1.0000 </r>
       <r>   -0.0811    1.0000 </r>
       <r>    0.0453    1.0000 </r>
       <r>    0.0760    1.0000 </r>
       <r>    0.1610    1.0000 </r>
       <r>    0.2244    1.0000 </r>
       <r>    0.3881    1.0000 </r>
       <r>    0.5437    1.0000 </r>
       <r>    0.6252    1.0000 </r>
       <r>    3.1830    0.0000 </r>
       <r>    4.2156    0.0000 </r>
       <r>    5.0192    0.0000 </r>
       <r>    5.4951    0.0000 </r>
       <r>    5.6071    0.0000 </r>
       <r>    6.4964    0.0000 </r>
       <r>    6.4971    0.0000 </r>
       <r>    6.6167    0.0000 </r>
       <r>    6.6642    0.0000 </r>
       <r>    6.6672    0.0000 </r>
       <r>    6.7023    0.0000 </r>
       <r>    7.4144    0.0000 </r>
       <r>    7.4150    0.0000 </r>
       <r>    7.8441    0.0000 </r>
       <r>    8.2106    0.0000 </r>
       <r>    8.2185    0.0000 </r>
       <r>    8.8326    0.0000 </r>
       <r>    8.8338    0.0000 </r>
       <r>    8.8974    0.0000 </r>
       <r>    9.0224    0.0000 </r>
       <r>    9.1331    0.0000 </r>
       <r>    9.1365    0.0000 </r>
       <r>    9.1958    0.0000 </r>
       <r>    9.1965    0.0000 </r>
       <r>    9.3001    0.0000 </r>
       <r>    9.3019    0.0000 </r>
       <r>    9.3867    0.0000 </r>
       <r>    9.5206    0.0000 </r>
      </set>
      <set comment="kpoint 3">
       <r>  -16.7725    1.0000 </r>
       <r>  -16.6184    1.0000 </r>
       <r>  -16.4771    1.0000 </r>
       <r>  -16.3960    1.0000 </r>
       <r>  -16.3726    1.0000 </r>
       <r>  -16.3018    1.0000 </r>
       <r>  -16.2963    1.0000 </r>
       <r>  -16.2408    1.0000 </r>
       <r>  -16.2358    1.0000 </r>
       <r>  -16.2334    1.0000 </r>
       <r>  -16.2260    1.0000 </r>
       <r>  -16.1573    1.0000 </r>
       <r>  -16.1519    1.0000 </r>
       <r>  -16.1288    1.0000 </r>
       <r>  -16.1046    1.0000 </r>
       <r>  -16.0990    1.0000 </r>
       <r>   -5.0115    1.0000 </r>
       <r>   -4.9388    1.0000 </r>
       <r>   -4.9123    1.0000 </r>
       <r>   -4.9003    1.0000 </r>
       <r>   -4.8734    1.0000 </r>
       <r>   -4.8720    1.0000 </r>
       <r>   -4.8548    1.0000 </r>
       <r>   -4.8130    1.0000 </r>
       <r>   -4.8037    1.0000 </r>
       <r>   -4.8030    1.0000 </r>
       <r>   -4.7785    1.0000 </r>
       <r>   -4.7779    1.0000 </r>
       <r>   -4.6464    1.0000 </r>
       <r>   -4.6020    1.0000 </r>
       <r>   -4.5895    1.0000 </r>
       <r>   -4.5614    1.0000 </r>
       <r>   -4.5592    1.0000 </r>
       <r>   -4.5456    1.0000 </r>
       <r>   -4.5419    1.0000 </r>
       <r>   -4.5155    1.0000 </r>
       <r>   -4.4794    1.0000 </r>
       <r>   -4.4647    1.0000 </r>
       <r>   -4.4609    1.0000 </r>
       <r>   -4.4169    1.0000 </r>
       <r>   -4.4157    1.0000 </r>
       <r>   -4.3901    1.0000 </r>
       <r>   -4.3896    1.0000 </r>
       <r>   -4.3873    1.0000 </r>
       <r>   -4.3782    1.0000 </r>
       <r>   -4.3570    1.0000 </r>
       <r>   -4.3222    1.0000 </r>
       <r>   -4.2857    1.0000 </r>
       <r>   -4.2677    1.0000 </r>
       <r>   -4.2670    1.0000 </r>
       <r>   -4.2586    1.0000 </r>
       <r>   -4.2381    1.0000 </r>
       <r>   -4.2098    1.0000 </r>
       <r>   -4.2085    1.0000 </r>
       <r>   -4.1237    1.0000 </r>
       <r>   -4.1233    1.0000 </r>
       <r>   -4.1196    1.0000 </r>
       <r>   -4.1108    1.0000 </r>
       <r>   -4.1099    1.0000 </r>
       <r>   -4.0491    1.0000 </r>
       <r>   -3.9935    1.0000 </r>
       <r>   -3.9921    1.0000 </r>
       <r>   -3.9468    1.0000 </r>
       <r>   -3.9457    1.0000 </r>
       <r>   -3.6607    1.0000 </r>
       <r>   -3.6457    1.0000 </r>
       <r>   -3.6276    1.0000 </r>
       <r>   -3.6267    1.0000 </r>
       <r>   -3.6004    1.0000 </r>
       <r>   -3.5488    1.0000 </r>
       <r>   -3.5373    1.0000 </r>
       <r>   -3.5340    1.0000 </r>
       <r>   -3.5310    1.0000 </r>
       <r>   -3.5224    1.0000 </r>
       <r>   -3.5222    1.0000 </r>
       <r>   -3.5142    1.0000 </r>
       <r>   -3.5139    1.0000 </r>
       <r>   -3.4974    1.0000 </r>
       <r>   -3.4720    1.0000 </r>
       <r>   -3.4716    1.0000 </r>
       <r>   -3.4592    1.0000 </r>
       <r>   -3.4417    1.0000 </r>
       <r>   -3.4401    1.0000 </r>
       <r>   -3.4132    1.0000 </r>
       <r>   -3.3960    1.0000 </r>
       <r>   -3.3824    1.0000 </r>
       <r>   -3.3627    1.0000 </r>
       <r>   -3.3624    1.0000 </r>
       <r>   -3.3539    1.0000 </r>
       <r>   -3.3436    1.0000 </r>
       <r>   -3.3431    1.0000 </r>
       <r>   -3.2620    1.0000 </r>
       <r>   -3.2523    1.0000 </r>
       <r>   -3.2519    1.0000 </r>
       <r>   -3.1719    1.0000 </r>
       <r>   -3.1717    1.0000 </r>
       <r>   -2.9229    1.0000 </r>
       <r>   -2.9212    1.0000 </r>
       <r>   -2.9200    1.0000 </r>
       <r>   -2.7699    1.0000 </r>
       <r>   -2.7290    1.0000 </r>
       <r>   -2.7281    1.0000 </r>
       <r>   -2.4794    1.0000 </r>
       <r>   -2.4779    1.0000 </r>
       <r>   -2.3321    1.0000 </r>
       <r>   -2.3275    1.0000 </r>
       <r>   -2.3262    1.0000 </r>
       <r>   -2.1380    1.0000 </r>
       <r>   -2.0187    1.0000 </r>
       <r>   -1.9314    1.0000 </r>
       <r>   -1.8423    1.0000 </r>
       <r>   -1.8394    1.0000 </r>
       <r>   -1.4759    1.0000 </r>
       <r>   -1.4737    1.0000 </r>
       <r>   -1.4080    1.0000 </r>
       <r>   -1.3774    1.0000 </r>
       <r>   -1.3769    1.0000 </r>
       <r>   -1.0398    1.0000 </r>
       <r>   -0.9567    1.0000 </r>
       <r>   -0.8692    1.0000 </r>
       <r>   -0.8678    1.0000 </r>
       <r>   -0.8637    1.0000 </r>
       <r>   -0.7717    1.0000 </r>
       <r>   -0.6517    1.0000 </r>
       <r>   -0.6495    1.0000 </r>
       <r>   -0.5283    1.0000 </r>
       <r>   -0.4050    1.0000 </r>
       <r>   -0.4043    1.0000 </r>
       <r>   -0.3665    1.0000 </r>
       <r>   -0.3609    1.0000 </r>
       <r>   -0.2409    1.0000 </r>
       <r>   -0.2383    1.0000 </r>
       <r>   -0.2027    1.0000 </r>
       <r>   -0.1994    1.0000 </r>
       <r>   -0.1979    1.0000 </r>
       <r>   -0.1301    1.0000 </r>
       <r>   -0.0808    1.0000 </r>
       <r>    0.0457    1.0000 </r>
       <r>    0.0767    1.0000 </r>
       <r>    0.1616    1.0000 </r>
       <r>    0.2243    1.0000 </r>
       <r>    0.3878    1.0000 </r>
       <r>    0.5432    1.0000 </r>
       <r>    0.6253    1.0000 </r>
       <r>    3.1830    0.0000 </r>
       <r>    4.2156    0.0000 </r>
       <r>    5.0192    0.0000 </r>
       <r>    5.4952    0.0000 </r>
       <r>    5.6073    0.0000 </r>
       <r>    6.4962    0.0000 </r>
       <r>    6.4975    0.0000 </r>
       <r>    6.6167    0.0000 </r>
       <r>    6.6654    0.0000 </r>
       <r>    6.6658    0.0000 </r>
       <r>    6.7022    0.0000 </r>
       <r>    7.4120    0.0000 </r>
       <r>    7.4176    0.0000 </r>
       <r>    7.8441    0.0000 </r>
       <r>    8.2136    0.0000 </r>
       <r>    8.2151    0.0000 </r>
       <r>    8.8300    0.0000 </r>
       <r>    8.8366    0.0000 </r>
       <r>    8.8972    0.0000 </r>
       <r>    9.0225    0.0000 </r>
       <r>    9.1341    0.0000 </r>
       <r>    9.1352    0.0000 </r>
       <r>    9.1952    0.0000 </r>
       <r>    9.1968    0.0000 </r>
       <r>    9.3012    0.0000 </r>
       <r>    9.3015    0.0000 </r>
       <r>    9.3874    0.0000 </r>
       <r>    9.5172    0.0000 </r>
      </set>
      <set comment="kpoint 4">
       <r>  -16.7724    1.0000 </r>
       <r>  -16.6183    1.0000 </r>
       <r>  -16.4771    1.0000 </r>
       <r>  -16.3959    1.0000 </r>
       <r>  -16.3731    1.0000 </r>
       <r>  -16.2991    1.0000 </r>
       <r>  -16.2987    1.0000 </r>
       <r>  -16.2408    1.0000 </r>
       <r>  -16.2363    1.0000 </r>
       <r>  -16.2327    1.0000 </r>
       <r>  -16.2262    1.0000 </r>
       <r>  -16.1547    1.0000 </r>
       <r>  -16.1545    1.0000 </r>
       <r>  -16.1289    1.0000 </r>
       <r>  -16.1024    1.0000 </r>
       <r>  -16.1012    1.0000 </r>
       <r>   -5.0112    1.0000 </r>
       <r>   -4.9392    1.0000 </r>
       <r>   -4.9128    1.0000 </r>
       <r>   -4.9010    1.0000 </r>
       <r>   -4.8729    1.0000 </r>
       <r>   -4.8721    1.0000 </r>
       <r>   -4.8547    1.0000 </r>
       <r>   -4.8132    1.0000 </r>
       <r>   -4.8033    1.0000 </r>
       <r>   -4.8032    1.0000 </r>
       <r>   -4.7783    1.0000 </r>
       <r>   -4.7780    1.0000 </r>
       <r>   -4.6460    1.0000 </r>
       <r>   -4.6024    1.0000 </r>
       <r>   -4.5888    1.0000 </r>
       <r>   -4.5609    1.0000 </r>
       <r>   -4.5596    1.0000 </r>
       <r>   -4.5448    1.0000 </r>
       <r>   -4.5414    1.0000 </r>
       <r>   -4.5163    1.0000 </r>
       <r>   -4.4802    1.0000 </r>
       <r>   -4.4627    1.0000 </r>
       <r>   -4.4615    1.0000 </r>
       <r>   -4.4170    1.0000 </r>
       <r>   -4.4162    1.0000 </r>
       <r>   -4.3910    1.0000 </r>
       <r>   -4.3894    1.0000 </r>
       <r>   -4.3864    1.0000 </r>
       <r>   -4.3776    1.0000 </r>
       <r>   -4.3564    1.0000 </r>
       <r>   -4.3232    1.0000 </r>
       <r>   -4.2856    1.0000 </r>
       <r>   -4.2679    1.0000 </r>
       <r>   -4.2671    1.0000 </r>
       <r>   -4.2579    1.0000 </r>
       <r>   -4.2375    1.0000 </r>
       <r>   -4.2101    1.0000 </r>
       <r>   -4.2082    1.0000 </r>
       <r>   -4.1243    1.0000 </r>
       <r>   -4.1237    1.0000 </r>
       <r>   -4.1188    1.0000 </r>
       <r>   -4.1110    1.0000 </r>
       <r>   -4.1107    1.0000 </r>
       <r>   -4.0502    1.0000 </r>
       <r>   -3.9943    1.0000 </r>
       <r>   -3.9928    1.0000 </r>
       <r>   -3.9474    1.0000 </r>
       <r>   -3.9453    1.0000 </r>
       <r>   -3.6608    1.0000 </r>
       <r>   -3.6458    1.0000 </r>
       <r>   -3.6273    1.0000 </r>
       <r>   -3.6271    1.0000 </r>
       <r>   -3.6003    1.0000 </r>
       <r>   -3.5489    1.0000 </r>
       <r>   -3.5371    1.0000 </r>
       <r>   -3.5341    1.0000 </r>
       <r>   -3.5310    1.0000 </r>
       <r>   -3.5224    1.0000 </r>
       <r>   -3.5221    1.0000 </r>
       <r>   -3.5141    1.0000 </r>
       <r>   -3.5140    1.0000 </r>
       <r>   -3.4974    1.0000 </r>
       <r>   -3.4718    1.0000 </r>
       <r>   -3.4716    1.0000 </r>
       <r>   -3.4592    1.0000 </r>
       <r>   -3.4418    1.0000 </r>
       <r>   -3.4400    1.0000 </r>
       <r>   -3.4133    1.0000 </r>
       <r>   -3.3961    1.0000 </r>
       <r>   -3.3823    1.0000 </r>
       <r>   -3.3628    1.0000 </r>
       <r>   -3.3623    1.0000 </r>
       <r>   -3.3537    1.0000 </r>
       <r>   -3.3435    1.0000 </r>
       <r>   -3.3431    1.0000 </r>
       <r>   -3.2618    1.0000 </r>
       <r>   -3.2522    1.0000 </r>
       <r>   -3.2520    1.0000 </r>
       <r>   -3.1720    1.0000 </r>
       <r>   -3.1716    1.0000 </r>
       <r>   -2.9218    1.0000 </r>
       <r>   -2.9211    1.0000 </r>
       <r>   -2.9193    1.0000 </r>
       <r>   -2.7695    1.0000 </r>
       <r>   -2.7283    1.0000 </r>
       <r>   -2.7281    1.0000 </r>
       <r>   -2.4791    1.0000 </r>
       <r>   -2.4775    1.0000 </r>
       <r>   -2.3327    1.0000 </r>
       <r>   -2.3276    1.0000 </r>
       <r>   -2.3257    1.0000 </r>
       <r>   -2.1386    1.0000 </r>
       <r>   -2.0187    1.0000 </r>
       <r>   -1.9311    1.0000 </r>
       <r>   -1.8421    1.0000 </r>
       <r>   -1.8404    1.0000 </r>
       <r>   -1.4750    1.0000 </r>
       <r>   -1.4736    1.0000 </r>
       <r>   -1.4081    1.0000 </r>
       <r>   -1.3771    1.0000 </r>
       <r>   -1.3762    1.0000 </r>
       <r>   -1.0400    1.0000 </r>
       <r>   -0.9579    1.0000 </r>
       <r>   -0.8689    1.0000 </r>
       <r>   -0.8682    1.0000 </r>
       <r>   -0.8638    1.0000 </r>
       <r>   -0.7724    1.0000 </r>
       <r>   -0.6518    1.0000 </r>
       <r>   -0.6499    1.0000 </r>
       <r>   -0.5284    1.0000 </r>
       <r>   -0.4049    1.0000 </r>
       <r>   -0.4039    1.0000 </r>
       <r>   -0.3669    1.0000 </r>
       <r>   -0.3611    1.0000 </r>
       <r>   -0.2408    1.0000 </r>
       <r>   -0.2382    1.0000 </r>
       <r>   -0.2023    1.0000 </r>
       <r>   -0.1991    1.0000 </r>
       <r>   -0.1972    1.0000 </r>
       <r>   -0.1298    1.0000 </r>
       <r>   -0.0813    1.0000 </r>
       <r>    0.0457    1.0000 </r>
       <r>    0.0758    1.0000 </r>
       <r>    0.1610    1.0000 </r>
       <r>    0.2239    1.0000 </r>
       <r>    0.3879    1.0000 </r>
       <r>    0.5433    1.0000 </r>
       <r>    0.6250    1.0000 </r>
       <r>    3.1830    0.0000 </r>
       <r>    4.2156    0.0000 </r>
       <r>    5.0193    0.0000 </r>
       <r>    5.4953    0.0000 </r>
       <r>    5.6073    0.0000 </r>
       <r>    6.4959    0.0000 </r>
       <r>    6.4973    0.0000 </r>
       <r>    6.6170    0.0000 </r>
       <r>    6.6651    0.0000 </r>
       <r>    6.6658    0.0000 </r>
       <r>    6.7023    0.0000 </r>
       <r>    7.4142    0.0000 </r>
       <r>    7.4148    0.0000 </r>
       <r>    7.8444    0.0000 </r>
       <r>    8.2141    0.0000 </r>
       <r>    8.2144    0.0000 </r>
       <r>    8.8313    0.0000 </r>
       <r>    8.8344    0.0000 </r>
       <r>    8.8976    0.0000 </r>
       <r>    9.0224    0.0000 </r>
       <r>    9.1345    0.0000 </r>
       <r>    9.1347    0.0000 </r>
       <r>    9.1960    0.0000 </r>
       <r>    9.1968    0.0000 </r>
       <r>    9.3011    0.0000 </r>
       <r>    9.3016    0.0000 </r>
       <r>    9.3873    0.0000 </r>
       <r>    9.5175    0.0000 </r>
      </set>
      <set comment="kpoint 5">
       <r>  -16.5620    1.0000 </r>
       <r>  -16.5572    1.0000 </r>
       <r>  -16.5530    1.0000 </r>
       <r>  -16.4421    1.0000 </r>
       <r>  -16.4375    1.0000 </r>
       <r>  -16.4332    1.0000 </r>
       <r>  -16.2741    1.0000 </r>
       <r>  -16.2694    1.0000 </r>
       <r>  -16.2652    1.0000 </r>
       <r>  -16.1593    1.0000 </r>
       <r>  -16.1519    1.0000 </r>
       <r>  -16.1511    1.0000 </r>
       <r>  -16.1496    1.0000 </r>
       <r>  -16.1467    1.0000 </r>
       <r>  -16.1435    1.0000 </r>
       <r>  -16.1382    1.0000 </r>
       <r>   -4.9400    1.0000 </r>
       <r>   -4.9392    1.0000 </r>
       <r>   -4.9385    1.0000 </r>
       <r>   -4.8728    1.0000 </r>
       <r>   -4.8724    1.0000 </r>
       <r>   -4.8714    1.0000 </r>
       <r>   -4.8450    1.0000 </r>
       <r>   -4.8441    1.0000 </r>
       <r>   -4.8432    1.0000 </r>
       <r>   -4.6849    1.0000 </r>
       <r>   -4.6685    1.0000 </r>
       <r>   -4.6670    1.0000 </r>
       <r>   -4.6653    1.0000 </r>
       <r>   -4.6039    1.0000 </r>
       <r>   -4.6034    1.0000 </r>
       <r>   -4.5597    1.0000 </r>
       <r>   -4.4728    1.0000 </r>
       <r>   -4.4705    1.0000 </r>
       <r>   -4.4698    1.0000 </r>
       <r>   -4.4696    1.0000 </r>
       <r>   -4.4689    1.0000 </r>
       <r>   -4.4665    1.0000 </r>
       <r>   -4.4516    1.0000 </r>
       <r>   -4.4497    1.0000 </r>
       <r>   -4.4486    1.0000 </r>
       <r>   -4.4216    1.0000 </r>
       <r>   -4.4200    1.0000 </r>
       <r>   -4.4176    1.0000 </r>
       <r>   -4.3689    1.0000 </r>
       <r>   -4.3684    1.0000 </r>
       <r>   -4.3217    1.0000 </r>
       <r>   -4.3210    1.0000 </r>
       <r>   -4.3197    1.0000 </r>
       <r>   -4.3142    1.0000 </r>
       <r>   -4.2743    1.0000 </r>
       <r>   -4.2733    1.0000 </r>
       <r>   -4.2716    1.0000 </r>
       <r>   -4.1789    1.0000 </r>
       <r>   -4.1775    1.0000 </r>
       <r>   -4.1763    1.0000 </r>
       <r>   -4.1246    1.0000 </r>
       <r>   -4.1227    1.0000 </r>
       <r>   -4.1210    1.0000 </r>
       <r>   -4.0207    1.0000 </r>
       <r>   -3.9370    1.0000 </r>
       <r>   -3.9359    1.0000 </r>
       <r>   -3.8155    1.0000 </r>
       <r>   -3.8143    1.0000 </r>
       <r>   -3.6858    1.0000 </r>
       <r>   -3.6856    1.0000 </r>
       <r>   -3.6854    1.0000 </r>
       <r>   -3.6556    1.0000 </r>
       <r>   -3.6183    1.0000 </r>
       <r>   -3.5791    1.0000 </r>
       <r>   -3.5683    1.0000 </r>
       <r>   -3.5672    1.0000 </r>
       <r>   -3.5663    1.0000 </r>
       <r>   -3.5530    1.0000 </r>
       <r>   -3.5492    1.0000 </r>
       <r>   -3.5490    1.0000 </r>
       <r>   -3.5488    1.0000 </r>
       <r>   -3.5118    1.0000 </r>
       <r>   -3.5106    1.0000 </r>
       <r>   -3.5096    1.0000 </r>
       <r>   -3.4464    1.0000 </r>
       <r>   -3.4454    1.0000 </r>
       <r>   -3.4443    1.0000 </r>
       <r>   -3.4032    1.0000 </r>
       <r>   -3.4021    1.0000 </r>
       <r>   -3.4010    1.0000 </r>
       <r>   -3.3950    1.0000 </r>
       <r>   -3.3942    1.0000 </r>
       <r>   -3.3919    1.0000 </r>
       <r>   -3.3918    1.0000 </r>
       <r>   -3.3916    1.0000 </r>
       <r>   -3.2721    1.0000 </r>
       <r>   -3.2719    1.0000 </r>
       <r>   -3.2717    1.0000 </r>
       <r>   -3.1634    1.0000 </r>
       <r>   -3.1631    1.0000 </r>
       <r>   -2.7790    1.0000 </r>
       <r>   -2.7773    1.0000 </r>
       <r>   -2.7756    1.0000 </r>
       <r>   -2.7560    1.0000 </r>
       <r>   -2.7550    1.0000 </r>
       <r>   -2.6620    1.0000 </r>
       <r>   -2.6427    1.0000 </r>
       <r>   -2.6420    1.0000 </r>
       <r>   -2.0842    1.0000 </r>
       <r>   -2.0757    1.0000 </r>
       <r>   -2.0749    1.0000 </r>
       <r>   -2.0736    1.0000 </r>
       <r>   -1.6358    1.0000 </r>
       <r>   -1.6353    1.0000 </r>
       <r>   -1.6349    1.0000 </r>
       <r>   -1.5172    1.0000 </r>
       <r>   -1.5155    1.0000 </r>
       <r>   -1.5142    1.0000 </r>
       <r>   -1.4181    1.0000 </r>
       <r>   -1.4167    1.0000 </r>
       <r>   -1.4150    1.0000 </r>
       <r>   -1.3731    1.0000 </r>
       <r>   -0.8890    1.0000 </r>
       <r>   -0.8872    1.0000 </r>
       <r>   -0.8856    1.0000 </r>
       <r>   -0.8843    1.0000 </r>
       <r>   -0.8827    1.0000 </r>
       <r>   -0.8701    1.0000 </r>
       <r>   -0.7957    1.0000 </r>
       <r>   -0.7946    1.0000 </r>
       <r>   -0.7930    1.0000 </r>
       <r>   -0.5992    1.0000 </r>
       <r>   -0.5973    1.0000 </r>
       <r>   -0.5956    1.0000 </r>
       <r>   -0.4286    1.0000 </r>
       <r>   -0.4274    1.0000 </r>
       <r>   -0.1428    1.0000 </r>
       <r>   -0.1409    1.0000 </r>
       <r>   -0.1389    1.0000 </r>
       <r>   -0.0292    1.0000 </r>
       <r>   -0.0284    1.0000 </r>
       <r>   -0.0266    1.0000 </r>
       <r>    0.1697    1.0000 </r>
       <r>    0.1717    1.0000 </r>
       <r>    0.1735    1.0000 </r>
       <r>    0.2480    1.0000 </r>
       <r>    0.2500    1.0000 </r>
       <r>    0.2513    1.0000 </r>
       <r>    4.6266    0.0000 </r>
       <r>    4.6290    0.0000 </r>
       <r>    4.6312    0.0000 </r>
       <r>    5.2925    0.0000 </r>
       <r>    5.2948    0.0000 </r>
       <r>    5.2976    0.0000 </r>
       <r>    6.5409    0.0000 </r>
       <r>    6.5441    0.0000 </r>
       <r>    6.5465    0.0000 </r>
       <r>    7.7747    0.0000 </r>
       <r>    7.7767    0.0000 </r>
       <r>    7.7792    0.0000 </r>
       <r>    8.3024    0.0000 </r>
       <r>    8.3027    0.0000 </r>
       <r>    8.4909    0.0000 </r>
       <r>    8.4912    0.0000 </r>
       <r>    8.5209    0.0000 </r>
       <r>    8.6930    0.0000 </r>
       <r>    8.8322    0.0000 </r>
       <r>    8.8860    0.0000 </r>
       <r>    9.1361    0.0000 </r>
       <r>    9.1388    0.0000 </r>
       <r>    9.1418    0.0000 </r>
       <r>    9.6770    0.0000 </r>
       <r>    9.6792    0.0000 </r>
       <r>    9.6805    0.0000 </r>
       <r>    9.7383    0.0000 </r>
       <r>    9.7394    0.0000 </r>
      </set>
      <set comment="kpoint 6">
       <r>  -16.7724    1.0000 </r>
       <r>  -16.6184    1.0000 </r>
       <r>  -16.4770    1.0000 </r>
       <r>  -16.3960    1.0000 </r>
       <r>  -16.3725    1.0000 </r>
       <r>  -16.3020    1.0000 </r>
       <r>  -16.2964    1.0000 </r>
       <r>  -16.2409    1.0000 </r>
       <r>  -16.2358    1.0000 </r>
       <r>  -16.2334    1.0000 </r>
       <r>  -16.2261    1.0000 </r>
       <r>  -16.1573    1.0000 </r>
       <r>  -16.1520    1.0000 </r>
       <r>  -16.1288    1.0000 </r>
       <r>  -16.1046    1.0000 </r>
       <r>  -16.0990    1.0000 </r>
       <r>   -5.0118    1.0000 </r>
       <r>   -4.9394    1.0000 </r>
       <r>   -4.9130    1.0000 </r>
       <r>   -4.9003    1.0000 </r>
       <r>   -4.8730    1.0000 </r>
       <r>   -4.8722    1.0000 </r>
       <r>   -4.8551    1.0000 </r>
       <r>   -4.8138    1.0000 </r>
       <r>   -4.8038    1.0000 </r>
       <r>   -4.8022    1.0000 </r>
       <r>   -4.7786    1.0000 </r>
       <r>   -4.7776    1.0000 </r>
       <r>   -4.6462    1.0000 </r>
       <r>   -4.6019    1.0000 </r>
       <r>   -4.5880    1.0000 </r>
       <r>   -4.5610    1.0000 </r>
       <r>   -4.5587    1.0000 </r>
       <r>   -4.5443    1.0000 </r>
       <r>   -4.5424    1.0000 </r>
       <r>   -4.5159    1.0000 </r>
       <r>   -4.4796    1.0000 </r>
       <r>   -4.4636    1.0000 </r>
       <r>   -4.4593    1.0000 </r>
       <r>   -4.4182    1.0000 </r>
       <r>   -4.4162    1.0000 </r>
       <r>   -4.3908    1.0000 </r>
       <r>   -4.3894    1.0000 </r>
       <r>   -4.3873    1.0000 </r>
       <r>   -4.3766    1.0000 </r>
       <r>   -4.3576    1.0000 </r>
       <r>   -4.3227    1.0000 </r>
       <r>   -4.2862    1.0000 </r>
       <r>   -4.2674    1.0000 </r>
       <r>   -4.2669    1.0000 </r>
       <r>   -4.2589    1.0000 </r>
       <r>   -4.2366    1.0000 </r>
       <r>   -4.2097    1.0000 </r>
       <r>   -4.2093    1.0000 </r>
       <r>   -4.1250    1.0000 </r>
       <r>   -4.1237    1.0000 </r>
       <r>   -4.1182    1.0000 </r>
       <r>   -4.1125    1.0000 </r>
       <r>   -4.1109    1.0000 </r>
       <r>   -4.0496    1.0000 </r>
       <r>   -3.9945    1.0000 </r>
       <r>   -3.9928    1.0000 </r>
       <r>   -3.9473    1.0000 </r>
       <r>   -3.9464    1.0000 </r>
       <r>   -3.6610    1.0000 </r>
       <r>   -3.6460    1.0000 </r>
       <r>   -3.6278    1.0000 </r>
       <r>   -3.6267    1.0000 </r>
       <r>   -3.6002    1.0000 </r>
       <r>   -3.5490    1.0000 </r>
       <r>   -3.5371    1.0000 </r>
       <r>   -3.5340    1.0000 </r>
       <r>   -3.5311    1.0000 </r>
       <r>   -3.5222    1.0000 </r>
       <r>   -3.5221    1.0000 </r>
       <r>   -3.5144    1.0000 </r>
       <r>   -3.5140    1.0000 </r>
       <r>   -3.4973    1.0000 </r>
       <r>   -3.4716    1.0000 </r>
       <r>   -3.4715    1.0000 </r>
       <r>   -3.4592    1.0000 </r>
       <r>   -3.4418    1.0000 </r>
       <r>   -3.4400    1.0000 </r>
       <r>   -3.4134    1.0000 </r>
       <r>   -3.3961    1.0000 </r>
       <r>   -3.3822    1.0000 </r>
       <r>   -3.3627    1.0000 </r>
       <r>   -3.3624    1.0000 </r>
       <r>   -3.3534    1.0000 </r>
       <r>   -3.3434    1.0000 </r>
       <r>   -3.3431    1.0000 </r>
       <r>   -3.2618    1.0000 </r>
       <r>   -3.2523    1.0000 </r>
       <r>   -3.2519    1.0000 </r>
       <r>   -3.1719    1.0000 </r>
       <r>   -3.1717    1.0000 </r>
       <r>   -2.9215    1.0000 </r>
       <r>   -2.9199    1.0000 </r>
       <r>   -2.9187    1.0000 </r>
       <r>   -2.7700    1.0000 </r>
       <r>   -2.7285    1.0000 </r>
       <r>   -2.7267    1.0000 </r>
       <r>   -2.4782    1.0000 </r>
       <r>   -2.4776    1.0000 </r>
       <r>   -2.3325    1.0000 </r>
       <r>   -2.3274    1.0000 </r>
       <r>   -2.3254    1.0000 </r>
       <r>   -2.1388    1.0000 </r>
       <r>   -2.0190    1.0000 </r>
       <r>   -1.9314    1.0000 </r>
       <r>   -1.8420    1.0000 </r>
       <r>   -1.8401    1.0000 </r>
       <r>   -1.4755    1.0000 </r>
       <r>   -1.4731    1.0000 </r>
       <r>   -1.4087    1.0000 </r>
       <r>   -1.3779    1.0000 </r>
       <r>   -1.3763    1.0000 </r>
       <r>   -1.0399    1.0000 </r>
       <r>   -0.9578    1.0000 </r>
       <r>   -0.8687    1.0000 </r>
       <r>   -0.8672    1.0000 </r>
       <r>   -0.8637    1.0000 </r>
       <r>   -0.7734    1.0000 </r>
       <r>   -0.6511    1.0000 </r>
       <r>   -0.6505    1.0000 </r>
       <r>   -0.5288    1.0000 </r>
       <r>   -0.4056    1.0000 </r>
       <r>   -0.4035    1.0000 </r>
       <r>   -0.3676    1.0000 </r>
       <r>   -0.3608    1.0000 </r>
       <r>   -0.2393    1.0000 </r>
       <r>   -0.2385    1.0000 </r>
       <r>   -0.2018    1.0000 </r>
       <r>   -0.1992    1.0000 </r>
       <r>   -0.1968    1.0000 </r>
       <r>   -0.1311    1.0000 </r>
       <r>   -0.0816    1.0000 </r>
       <r>    0.0462    1.0000 </r>
       <r>    0.0756    1.0000 </r>
       <r>    0.1611    1.0000 </r>
       <r>    0.2234    1.0000 </r>
       <r>    0.3877    1.0000 </r>
       <r>    0.5429    1.0000 </r>
       <r>    0.6249    1.0000 </r>
       <r>    3.1830    0.0000 </r>
       <r>    4.2156    0.0000 </r>
       <r>    5.0195    0.0000 </r>
       <r>    5.4955    0.0000 </r>
       <r>    5.6074    0.0000 </r>
       <r>    6.4961    0.0000 </r>
       <r>    6.4968    0.0000 </r>
       <r>    6.6172    0.0000 </r>
       <r>    6.6637    0.0000 </r>
       <r>    6.6667    0.0000 </r>
       <r>    6.7023    0.0000 </r>
       <r>    7.4140    0.0000 </r>
       <r>    7.4146    0.0000 </r>
       <r>    7.8447    0.0000 </r>
       <r>    8.2099    0.0000 </r>
       <r>    8.2178    0.0000 </r>
       <r>    8.8321    0.0000 </r>
       <r>    8.8332    0.0000 </r>
       <r>    8.8977    0.0000 </r>
       <r>    9.0224    0.0000 </r>
       <r>    9.1328    0.0000 </r>
       <r>    9.1361    0.0000 </r>
       <r>    9.1963    0.0000 </r>
       <r>    9.1968    0.0000 </r>
       <r>    9.3008    0.0000 </r>
       <r>    9.3026    0.0000 </r>
       <r>    9.3878    0.0000 </r>
       <r>    9.5188    0.0000 </r>
      </set>
      <set comment="kpoint 7">
       <r>  -16.7724    1.0000 </r>
       <r>  -16.6183    1.0000 </r>
       <r>  -16.4771    1.0000 </r>
       <r>  -16.3959    1.0000 </r>
       <r>  -16.3732    1.0000 </r>
       <r>  -16.2990    1.0000 </r>
       <r>  -16.2987    1.0000 </r>
       <r>  -16.2407    1.0000 </r>
       <r>  -16.2363    1.0000 </r>
       <r>  -16.2327    1.0000 </r>
       <r>  -16.2263    1.0000 </r>
       <r>  -16.1547    1.0000 </r>
       <r>  -16.1546    1.0000 </r>
       <r>  -16.1289    1.0000 </r>
       <r>  -16.1024    1.0000 </r>
       <r>  -16.1012    1.0000 </r>
       <r>   -5.0112    1.0000 </r>
       <r>   -4.9392    1.0000 </r>
       <r>   -4.9128    1.0000 </r>
       <r>   -4.9011    1.0000 </r>
       <r>   -4.8726    1.0000 </r>
       <r>   -4.8724    1.0000 </r>
       <r>   -4.8546    1.0000 </r>
       <r>   -4.8132    1.0000 </r>
       <r>   -4.8035    1.0000 </r>
       <r>   -4.8030    1.0000 </r>
       <r>   -4.7786    1.0000 </r>
       <r>   -4.7777    1.0000 </r>
       <r>   -4.6460    1.0000 </r>
       <r>   -4.6025    1.0000 </r>
       <r>   -4.5888    1.0000 </r>
       <r>   -4.5608    1.0000 </r>
       <r>   -4.5598    1.0000 </r>
       <r>   -4.5447    1.0000 </r>
       <r>   -4.5414    1.0000 </r>
       <r>   -4.5162    1.0000 </r>
       <r>   -4.4803    1.0000 </r>
       <r>   -4.4627    1.0000 </r>
       <r>   -4.4615    1.0000 </r>
       <r>   -4.4174    1.0000 </r>
       <r>   -4.4159    1.0000 </r>
       <r>   -4.3903    1.0000 </r>
       <r>   -4.3892    1.0000 </r>
       <r>   -4.3870    1.0000 </r>
       <r>   -4.3777    1.0000 </r>
       <r>   -4.3564    1.0000 </r>
       <r>   -4.3233    1.0000 </r>
       <r>   -4.2856    1.0000 </r>
       <r>   -4.2679    1.0000 </r>
       <r>   -4.2670    1.0000 </r>
       <r>   -4.2578    1.0000 </r>
       <r>   -4.2374    1.0000 </r>
       <r>   -4.2095    1.0000 </r>
       <r>   -4.2089    1.0000 </r>
       <r>   -4.1245    1.0000 </r>
       <r>   -4.1233    1.0000 </r>
       <r>   -4.1189    1.0000 </r>
       <r>   -4.1112    1.0000 </r>
       <r>   -4.1106    1.0000 </r>
       <r>   -4.0502    1.0000 </r>
       <r>   -3.9940    1.0000 </r>
       <r>   -3.9931    1.0000 </r>
       <r>   -3.9469    1.0000 </r>
       <r>   -3.9457    1.0000 </r>
       <r>   -3.6608    1.0000 </r>
       <r>   -3.6458    1.0000 </r>
       <r>   -3.6276    1.0000 </r>
       <r>   -3.6269    1.0000 </r>
       <r>   -3.6003    1.0000 </r>
       <r>   -3.5489    1.0000 </r>
       <r>   -3.5371    1.0000 </r>
       <r>   -3.5342    1.0000 </r>
       <r>   -3.5310    1.0000 </r>
       <r>   -3.5224    1.0000 </r>
       <r>   -3.5221    1.0000 </r>
       <r>   -3.5142    1.0000 </r>
       <r>   -3.5140    1.0000 </r>
       <r>   -3.4974    1.0000 </r>
       <r>   -3.4717    1.0000 </r>
       <r>   -3.4716    1.0000 </r>
       <r>   -3.4592    1.0000 </r>
       <r>   -3.4418    1.0000 </r>
       <r>   -3.4400    1.0000 </r>
       <r>   -3.4133    1.0000 </r>
       <r>   -3.3961    1.0000 </r>
       <r>   -3.3824    1.0000 </r>
       <r>   -3.3628    1.0000 </r>
       <r>   -3.3623    1.0000 </r>
       <r>   -3.3537    1.0000 </r>
       <r>   -3.3435    1.0000 </r>
       <r>   -3.3431    1.0000 </r>
       <r>   -3.2618    1.0000 </r>
       <r>   -3.2521    1.0000 </r>
       <r>   -3.2520    1.0000 </r>
       <r>   -3.1721    1.0000 </r>
       <r>   -3.1715    1.0000 </r>
       <r>   -2.9221    1.0000 </r>
       <r>   -2.9207    1.0000 </r>
       <r>   -2.9194    1.0000 </r>
       <r>   -2.7695    1.0000 </r>
       <r>   -2.7289    1.0000 </r>
       <r>   -2.7274    1.0000 </r>
       <r>   -2.4787    1.0000 </r>
       <r>   -2.4780    1.0000 </r>
       <r>   -2.3327    1.0000 </r>
       <r>   -2.3278    1.0000 </r>
       <r>   -2.3255    1.0000 </r>
       <r>   -2.1386    1.0000 </r>
       <r>   -2.0187    1.0000 </r>
       <r>   -1.9311    1.0000 </r>
       <r>   -1.8416    1.0000 </r>
       <r>   -1.8409    1.0000 </r>
       <r>   -1.4748    1.0000 </r>
       <r>   -1.4738    1.0000 </r>
       <r>   -1.4082    1.0000 </r>
       <r>   -1.3776    1.0000 </r>
       <r>   -1.3757    1.0000 </r>
       <r>   -1.0400    1.0000 </r>
       <r>   -0.9579    1.0000 </r>
       <r>   -0.8689    1.0000 </r>
       <r>   -0.8684    1.0000 </r>
       <r>   -0.8636    1.0000 </r>
       <r>   -0.7724    1.0000 </r>
       <r>   -0.6514    1.0000 </r>
       <r>   -0.6502    1.0000 </r>
       <r>   -0.5284    1.0000 </r>
       <r>   -0.4056    1.0000 </r>
       <r>   -0.4032    1.0000 </r>
       <r>   -0.3669    1.0000 </r>
       <r>   -0.3611    1.0000 </r>
       <r>   -0.2403    1.0000 </r>
       <r>   -0.2387    1.0000 </r>
       <r>   -0.2023    1.0000 </r>
       <r>   -0.1991    1.0000 </r>
       <r>   -0.1971    1.0000 </r>
       <r>   -0.1299    1.0000 </r>
       <r>   -0.0813    1.0000 </r>
       <r>    0.0457    1.0000 </r>
       <r>    0.0758    1.0000 </r>
       <r>    0.1610    1.0000 </r>
       <r>    0.2239    1.0000 </r>
       <r>    0.3879    1.0000 </r>
       <r>    0.5433    1.0000 </r>
       <r>    0.6250    1.0000 </r>
       <r>    3.1830    0.0000 </r>
       <r>    4.2156    0.0000 </r>
       <r>    5.0193    0.0000 </r>
       <r>    5.4953    0.0000 </r>
       <r>    5.6073    0.0000 </r>
       <r>    6.4959    0.0000 </r>
       <r>    6.4973    0.0000 </r>
       <r>    6.6168    0.0000 </r>
       <r>    6.6649    0.0000 </r>
       <r>    6.6662    0.0000 </r>
       <r>    6.7023    0.0000 </r>
       <r>    7.4141    0.0000 </r>
       <r>    7.4149    0.0000 </r>
       <r>    7.8444    0.0000 </r>
       <r>    8.2135    0.0000 </r>
       <r>    8.2149    0.0000 </r>
       <r>    8.8326    0.0000 </r>
       <r>    8.8332    0.0000 </r>
       <r>    8.8976    0.0000 </r>
       <r>    9.0224    0.0000 </r>
       <r>    9.1335    0.0000 </r>
       <r>    9.1358    0.0000 </r>
       <r>    9.1960    0.0000 </r>
       <r>    9.1967    0.0000 </r>
       <r>    9.3011    0.0000 </r>
       <r>    9.3017    0.0000 </r>
       <r>    9.3891    0.0000 </r>
       <r>    9.5223    0.0000 </r>
      </set>
      <set comment="kpoint 8">
       <r>  -16.7724    1.0000 </r>
       <r>  -16.6183    1.0000 </r>
       <r>  -16.4769    1.0000 </r>
       <r>  -16.3960    1.0000 </r>
       <r>  -16.3725    1.0000 </r>
       <r>  -16.3020    1.0000 </r>
       <r>  -16.2964    1.0000 </r>
       <r>  -16.2409    1.0000 </r>
       <r>  -16.2358    1.0000 </r>
       <r>  -16.2334    1.0000 </r>
       <r>  -16.2260    1.0000 </r>
       <r>  -16.1573    1.0000 </r>
       <r>  -16.1520    1.0000 </r>
       <r>  -16.1288    1.0000 </r>
       <r>  -16.1046    1.0000 </r>
       <r>  -16.0990    1.0000 </r>
       <r>   -5.0110    1.0000 </r>
       <r>   -4.9397    1.0000 </r>
       <r>   -4.9134    1.0000 </r>
       <r>   -4.9015    1.0000 </r>
       <r>   -4.8730    1.0000 </r>
       <r>   -4.8719    1.0000 </r>
       <r>   -4.8544    1.0000 </r>
       <r>   -4.8133    1.0000 </r>
       <r>   -4.8035    1.0000 </r>
       <r>   -4.8028    1.0000 </r>
       <r>   -4.7784    1.0000 </r>
       <r>   -4.7778    1.0000 </r>
       <r>   -4.6456    1.0000 </r>
       <r>   -4.6026    1.0000 </r>
       <r>   -4.5879    1.0000 </r>
       <r>   -4.5611    1.0000 </r>
       <r>   -4.5589    1.0000 </r>
       <r>   -4.5444    1.0000 </r>
       <r>   -4.5411    1.0000 </r>
       <r>   -4.5171    1.0000 </r>
       <r>   -4.4811    1.0000 </r>
       <r>   -4.4634    1.0000 </r>
       <r>   -4.4594    1.0000 </r>
       <r>   -4.4176    1.0000 </r>
       <r>   -4.4164    1.0000 </r>
       <r>   -4.3905    1.0000 </r>
       <r>   -4.3894    1.0000 </r>
       <r>   -4.3871    1.0000 </r>
       <r>   -4.3764    1.0000 </r>
       <r>   -4.3559    1.0000 </r>
       <r>   -4.3242    1.0000 </r>
       <r>   -4.2854    1.0000 </r>
       <r>   -4.2679    1.0000 </r>
       <r>   -4.2675    1.0000 </r>
       <r>   -4.2571    1.0000 </r>
       <r>   -4.2368    1.0000 </r>
       <r>   -4.2100    1.0000 </r>
       <r>   -4.2086    1.0000 </r>
       <r>   -4.1246    1.0000 </r>
       <r>   -4.1240    1.0000 </r>
       <r>   -4.1182    1.0000 </r>
       <r>   -4.1119    1.0000 </r>
       <r>   -4.1110    1.0000 </r>
       <r>   -4.0513    1.0000 </r>
       <r>   -3.9950    1.0000 </r>
       <r>   -3.9936    1.0000 </r>
       <r>   -3.9469    1.0000 </r>
       <r>   -3.9459    1.0000 </r>
       <r>   -3.6609    1.0000 </r>
       <r>   -3.6460    1.0000 </r>
       <r>   -3.6277    1.0000 </r>
       <r>   -3.6268    1.0000 </r>
       <r>   -3.6003    1.0000 </r>
       <r>   -3.5490    1.0000 </r>
       <r>   -3.5371    1.0000 </r>
       <r>   -3.5339    1.0000 </r>
       <r>   -3.5311    1.0000 </r>
       <r>   -3.5223    1.0000 </r>
       <r>   -3.5221    1.0000 </r>
       <r>   -3.5143    1.0000 </r>
       <r>   -3.5140    1.0000 </r>
       <r>   -3.4974    1.0000 </r>
       <r>   -3.4717    1.0000 </r>
       <r>   -3.4714    1.0000 </r>
       <r>   -3.4593    1.0000 </r>
       <r>   -3.4418    1.0000 </r>
       <r>   -3.4399    1.0000 </r>
       <r>   -3.4134    1.0000 </r>
       <r>   -3.3961    1.0000 </r>
       <r>   -3.3822    1.0000 </r>
       <r>   -3.3627    1.0000 </r>
       <r>   -3.3624    1.0000 </r>
       <r>   -3.3536    1.0000 </r>
       <r>   -3.3435    1.0000 </r>
       <r>   -3.3430    1.0000 </r>
       <r>   -3.2616    1.0000 </r>
       <r>   -3.2522    1.0000 </r>
       <r>   -3.2518    1.0000 </r>
       <r>   -3.1719    1.0000 </r>
       <r>   -3.1717    1.0000 </r>
       <r>   -2.9220    1.0000 </r>
       <r>   -2.9204    1.0000 </r>
       <r>   -2.9178    1.0000 </r>
       <r>   -2.7690    1.0000 </r>
       <r>   -2.7282    1.0000 </r>
       <r>   -2.7274    1.0000 </r>
       <r>   -2.4787    1.0000 </r>
       <r>   -2.4772    1.0000 </r>
       <r>   -2.3331    1.0000 </r>
       <r>   -2.3271    1.0000 </r>
       <r>   -2.3259    1.0000 </r>
       <r>   -2.1392    1.0000 </r>
       <r>   -2.0187    1.0000 </r>
       <r>   -1.9308    1.0000 </r>
       <r>   -1.8431    1.0000 </r>
       <r>   -1.8403    1.0000 </r>
       <r>   -1.4749    1.0000 </r>
       <r>   -1.4727    1.0000 </r>
       <r>   -1.4082    1.0000 </r>
       <r>   -1.3765    1.0000 </r>
       <r>   -1.3759    1.0000 </r>
       <r>   -1.0402    1.0000 </r>
       <r>   -0.9590    1.0000 </r>
       <r>   -0.8693    1.0000 </r>
       <r>   -0.8678    1.0000 </r>
       <r>   -0.8641    1.0000 </r>
       <r>   -0.7731    1.0000 </r>
       <r>   -0.6521    1.0000 </r>
       <r>   -0.6500    1.0000 </r>
       <r>   -0.5285    1.0000 </r>
       <r>   -0.4044    1.0000 </r>
       <r>   -0.4038    1.0000 </r>
       <r>   -0.3673    1.0000 </r>
       <r>   -0.3613    1.0000 </r>
       <r>   -0.2405    1.0000 </r>
       <r>   -0.2381    1.0000 </r>
       <r>   -0.2017    1.0000 </r>
       <r>   -0.1984    1.0000 </r>
       <r>   -0.1969    1.0000 </r>
       <r>   -0.1298    1.0000 </r>
       <r>   -0.0818    1.0000 </r>
       <r>    0.0458    1.0000 </r>
       <r>    0.0749    1.0000 </r>
       <r>    0.1604    1.0000 </r>
       <r>    0.2235    1.0000 </r>
       <r>    0.3881    1.0000 </r>
       <r>    0.5434    1.0000 </r>
       <r>    0.6248    1.0000 </r>
       <r>    3.1830    0.0000 </r>
       <r>    4.2157    0.0000 </r>
       <r>    5.0195    0.0000 </r>
       <r>    5.4954    0.0000 </r>
       <r>    5.6073    0.0000 </r>
       <r>    6.4957    0.0000 </r>
       <r>    6.4971    0.0000 </r>
       <r>    6.6174    0.0000 </r>
[...]
       <r>   -1.4151    1.0000 </r>
       <r>   -1.3731    1.0000 </r>
       <r>   -0.8891    1.0000 </r>
       <r>   -0.8871    1.0000 </r>
       <r>   -0.8854    1.0000 </r>
       <r>   -0.8842    1.0000 </r>
       <r>   -0.8830    1.0000 </r>
       <r>   -0.8701    1.0000 </r>
       <r>   -0.7959    1.0000 </r>
       <r>   -0.7941    1.0000 </r>
       <r>   -0.7932    1.0000 </r>
       <r>   -0.5992    1.0000 </r>
       <r>   -0.5974    1.0000 </r>
       <r>   -0.5955    1.0000 </r>
       <r>   -0.4286    1.0000 </r>
       <r>   -0.4274    1.0000 </r>
       <r>   -0.1429    1.0000 </r>
       <r>   -0.1408    1.0000 </r>
       <r>   -0.1389    1.0000 </r>
       <r>   -0.0295    1.0000 </r>
       <r>   -0.0277    1.0000 </r>
       <r>   -0.0269    1.0000 </r>
       <r>    0.1698    1.0000 </r>
       <r>    0.1716    1.0000 </r>
       <r>    0.1736    1.0000 </r>
       <r>    0.2483    1.0000 </r>
       <r>    0.2495    1.0000 </r>
       <r>    0.2515    1.0000 </r>
       <r>    4.6266    0.0000 </r>
       <r>    4.6288    0.0000 </r>
       <r>    4.6312    0.0000 </r>
       <r>    5.2923    0.0000 </r>
       <r>    5.2952    0.0000 </r>
       <r>    5.2975    0.0000 </r>
       <r>    6.5412    0.0000 </r>
       <r>    6.5436    0.0000 </r>
       <r>    6.5468    0.0000 </r>
       <r>    7.7745    0.0000 </r>
       <r>    7.7770    0.0000 </r>
       <r>    7.7790    0.0000 </r>
       <r>    8.3024    0.0000 </r>
       <r>    8.3027    0.0000 </r>
       <r>    8.4909    0.0000 </r>
       <r>    8.4912    0.0000 </r>
       <r>    8.5209    0.0000 </r>
       <r>    8.6930    0.0000 </r>
       <r>    8.8322    0.0000 </r>
       <r>    8.8860    0.0000 </r>
       <r>    9.1360    0.0000 </r>
       <r>    9.1390    0.0000 </r>
       <r>    9.1417    0.0000 </r>
       <r>    9.6772    0.0000 </r>
       <r>    9.6787    0.0000 </r>
       <r>    9.6808    0.0000 </r>
       <r>    9.7383    0.0000 </r>
       <r>    9.7394    0.0000 </r>
      </set>
     </set>
    </set>
   </array>
  </eigenvalues>
  <separator name="orbital magnetization" >
   <v name="MAGDIPOLOUT">      0.00000000      0.00000000      0.00000000</v>
  </separator>
  <dos>
   <i name="efermi">      0.86242675 </i>
   <total>
    <array>
     <dimension dim="1">gridpoints</dimension>
     <dimension dim="2">spin</dimension>
     <field>energy</field>
     <field>total</field>
     <field>integrated</field>
     <set>
      <set comment="spin 1">
       <r>   -18.2370     0.0000     0.0000 </r>
       <r>   -18.1393     0.0000     0.0000 </r>
       <r>   -18.0416     0.0000     0.0000 </r>
       <r>   -17.9439     0.0000     0.0000 </r>
       <r>   -17.8462     0.0000     0.0000 </r>
       <r>   -17.7485     0.0000     0.0000 </r>
       <r>   -17.6508     0.0000     0.0000 </r>
       <r>   -17.5531     0.0000     0.0000 </r>
       <r>   -17.4554     0.0000     0.0000 </r>
       <r>   -17.3578     0.0000     0.0000 </r>
       <r>   -17.2601     0.0000     0.0000 </r>
       <r>   -17.1624     0.0000     0.0000 </r>
       <r>   -17.0647     0.0000     0.0000 </r>
       <r>   -16.9670     0.0000     0.0000 </r>
       <r>   -16.8693     2.2746     0.2222 </r>
       <r>   -16.7716     7.4839     0.9534 </r>
       <r>   -16.6739     2.2746     1.7778 </r>
       <r>   -16.5762    13.7683     3.1229 </r>
       <r>   -16.4785    16.1974     5.1398 </r>
       <r>   -16.3808    28.8216     8.8157 </r>
       <r>   -16.2831    35.6341    13.4813 </r>
       <r>   -16.1854    65.9396    20.8890 </r>
       <r>   -16.0877   112.8572    31.9146 </r>
       <r>   -15.9900     0.0000    32.0000 </r>
       <r>   -15.8923     0.0000    32.0000 </r>
       <r>   -15.7946     0.0000    32.0000 </r>
       <r>   -15.6969     0.0000    32.0000 </r>
       <r>   -15.5992     0.0000    32.0000 </r>
       <r>   -15.5015     0.0000    32.0000 </r>
       <r>   -15.4038     0.0000    32.0000 </r>
       <r>   -15.3061     0.0000    32.0000 </r>
       <r>   -15.2085     0.0000    32.0000 </r>
       <r>   -15.1108     0.0000    32.0000 </r>
       <r>   -15.0131     0.0000    32.0000 </r>
       <r>   -14.9154     0.0000    32.0000 </r>
       <r>   -14.8177     0.0000    32.0000 </r>
       <r>   -14.7200     0.0000    32.0000 </r>
       <r>   -14.6223     0.0000    32.0000 </r>
       <r>   -14.5246     0.0000    32.0000 </r>
       <r>   -14.4269     0.0000    32.0000 </r>
       <r>   -14.3292     0.0000    32.0000 </r>
       <r>   -14.2315     0.0000    32.0000 </r>
       <r>   -14.1338     0.0000    32.0000 </r>
       <r>   -14.0361     0.0000    32.0000 </r>
       <r>   -13.9384     0.0000    32.0000 </r>
       <r>   -13.8407     0.0000    32.0000 </r>
       <r>   -13.7430     0.0000    32.0000 </r>
       <r>   -13.6453     0.0000    32.0000 </r>
       <r>   -13.5476     0.0000    32.0000 </r>
       <r>   -13.4499     0.0000    32.0000 </r>
       <r>   -13.3522     0.0000    32.0000 </r>
       <r>   -13.2545     0.0000    32.0000 </r>
       <r>   -13.1569     0.0000    32.0000 </r>
       <r>   -13.0592     0.0000    32.0000 </r>
       <r>   -12.9615     0.0000    32.0000 </r>
       <r>   -12.8638     0.0000    32.0000 </r>
       <r>   -12.7661     0.0000    32.0000 </r>
       <r>   -12.6684     0.0000    32.0000 </r>
       <r>   -12.5707     0.0000    32.0000 </r>
       <r>   -12.4730     0.0000    32.0000 </r>
       <r>   -12.3753     0.0000    32.0000 </r>
       <r>   -12.2776     0.0000    32.0000 </r>
       <r>   -12.1799     0.0000    32.0000 </r>
       <r>   -12.0822     0.0000    32.0000 </r>
       <r>   -11.9845     0.0000    32.0000 </r>
       <r>   -11.8868     0.0000    32.0000 </r>
       <r>   -11.7891     0.0000    32.0000 </r>
       <r>   -11.6914     0.0000    32.0000 </r>
       <r>   -11.5937     0.0000    32.0000 </r>
       <r>   -11.4960     0.0000    32.0000 </r>
       <r>   -11.3983     0.0000    32.0000 </r>
       <r>   -11.3006     0.0000    32.0000 </r>
       <r>   -11.2029     0.0000    32.0000 </r>
       <r>   -11.1053     0.0000    32.0000 </r>
       <r>   -11.0076     0.0000    32.0000 </r>
       <r>   -10.9099     0.0000    32.0000 </r>
       <r>   -10.8122     0.0000    32.0000 </r>
       <r>   -10.7145     0.0000    32.0000 </r>
       <r>   -10.6168     0.0000    32.0000 </r>
       <r>   -10.5191     0.0000    32.0000 </r>
       <r>   -10.4214     0.0000    32.0000 </r>
       <r>   -10.3237     0.0000    32.0000 </r>
       <r>   -10.2260     0.0000    32.0000 </r>
       <r>   -10.1283     0.0000    32.0000 </r>
       <r>   -10.0306     0.0000    32.0000 </r>
       <r>    -9.9329     0.0000    32.0000 </r>
       <r>    -9.8352     0.0000    32.0000 </r>
       <r>    -9.7375     0.0000    32.0000 </r>
       <r>    -9.6398     0.0000    32.0000 </r>
       <r>    -9.5421     0.0000    32.0000 </r>
       <r>    -9.4444     0.0000    32.0000 </r>
       <r>    -9.3467     0.0000    32.0000 </r>
       <r>    -9.2490     0.0000    32.0000 </r>
       <r>    -9.1513     0.0000    32.0000 </r>
       <r>    -9.0536     0.0000    32.0000 </r>
       <r>    -8.9560     0.0000    32.0000 </r>
       <r>    -8.8583     0.0000    32.0000 </r>
       <r>    -8.7606     0.0000    32.0000 </r>
       <r>    -8.6629     0.0000    32.0000 </r>
       <r>    -8.5652     0.0000    32.0000 </r>
       <r>    -8.4675     0.0000    32.0000 </r>
       <r>    -8.3698     0.0000    32.0000 </r>
       <r>    -8.2721     0.0000    32.0000 </r>
       <r>    -8.1744     0.0000    32.0000 </r>
       <r>    -8.0767     0.0000    32.0000 </r>
       <r>    -7.9790     0.0000    32.0000 </r>
       <r>    -7.8813     0.0000    32.0000 </r>
       <r>    -7.7836     0.0000    32.0000 </r>
       <r>    -7.6859     0.0000    32.0000 </r>
       <r>    -7.5882     0.0000    32.0000 </r>
       <r>    -7.4905     0.0000    32.0000 </r>
       <r>    -7.3928     0.0000    32.0000 </r>
       <r>    -7.2951     0.0000    32.0000 </r>
       <r>    -7.1974     0.0000    32.0000 </r>
       <r>    -7.0997     0.0000    32.0000 </r>
       <r>    -7.0020     0.0000    32.0000 </r>
       <r>    -6.9044     0.0000    32.0000 </r>
       <r>    -6.8067     0.0000    32.0000 </r>
       <r>    -6.7090     0.0000    32.0000 </r>
       <r>    -6.6113     0.0000    32.0000 </r>
       <r>    -6.5136     0.0000    32.0000 </r>
       <r>    -6.4159     0.0000    32.0000 </r>
       <r>    -6.3182     0.0000    32.0000 </r>
       <r>    -6.2205     0.0000    32.0000 </r>
       <r>    -6.1228     0.0000    32.0000 </r>
       <r>    -6.0251     0.0000    32.0000 </r>
       <r>    -5.9274     0.0000    32.0000 </r>
       <r>    -5.8297     0.0000    32.0000 </r>
       <r>    -5.7320     0.0000    32.0000 </r>
       <r>    -5.6343     0.0000    32.0000 </r>
       <r>    -5.5366     0.0000    32.0000 </r>
       <r>    -5.4389     0.0000    32.0000 </r>
       <r>    -5.3412     0.0000    32.0000 </r>
       <r>    -5.2435     0.0000    32.0000 </r>
       <r>    -5.1458     0.0000    32.0000 </r>
       <r>    -5.0481     0.0000    32.0000 </r>
       <r>    -4.9504    22.8485    34.2322 </r>
       <r>    -4.8527    84.6985    45.6080 </r>
       <r>    -4.7551    72.7733    54.4429 </r>
       <r>    -4.6574    29.6252    57.3387 </r>
       <r>    -4.5597    63.8849    65.1303 </r>
       <r>    -4.4620    80.8942    76.1305 </r>
       <r>    -4.3643   110.4202    89.8986 </r>
       <r>    -4.2666    79.9688    99.1459 </r>
       <r>    -4.1689    53.0697   106.9625 </r>
       <r>    -4.0712   107.5741   117.6206 </r>
       <r>    -3.9735    45.4796   122.8897 </r>
       <r>    -3.8758    36.3925   127.1111 </r>
       <r>    -3.7781     9.0986   128.0000 </r>
       <r>    -3.6804    10.5375   129.0295 </r>
       <r>    -3.5827    83.3045   137.4756 </r>
       <r>    -3.4850   166.3104   155.3589 </r>
       <r>    -3.3873   150.5656   172.7098 </r>
       <r>    -3.2896    81.7480   183.0981 </r>
       <r>    -3.1919    50.0495   188.4504 </r>
       <r>    -3.0942    36.3334   192.0000 </r>
       <r>    -2.9965     0.0000   192.0000 </r>
       <r>    -2.8988    43.2466   196.2250 </r>
       <r>    -2.8011     6.8305   197.5562 </r>
       <r>    -2.7035    70.5006   204.4438 </r>
       <r>    -2.6058    18.5808   206.2597 </r>
       <r>    -2.5081     0.0004   206.4445 </r>
       <r>    -2.4104    27.2954   209.1111 </r>
       <r>    -2.3127    40.2319   213.0416 </r>
       <r>    -2.2150     0.0000   213.1111 </r>
       <r>    -2.1173    13.6302   214.4427 </r>
       <r>    -2.0196    24.3409   216.8224 </r>
       <r>    -1.9219    14.6089   218.9828 </r>
       <r>    -1.8242    27.0639   221.7551 </r>
       <r>    -1.7265     0.0008   221.7779 </r>
       <r>    -1.6288    18.0462   223.5409 </r>
       <r>    -1.5311     0.2126   223.7986 </r>
       <r>    -1.4334    27.4303   227.7909 </r>
       <r>    -1.3357    50.0186   233.5556 </r>
       <r>    -1.2380     0.3626   233.5910 </r>
       <r>    -1.1403     0.0000   234.2222 </r>
       <r>    -1.0426     4.8183   234.6929 </r>
       <r>    -0.9449    13.1830   236.8435 </r>
       <r>    -0.8472    73.0988   244.0303 </r>
       <r>    -0.7495    29.5617   247.7769 </r>
       <r>    -0.6519    12.1146   248.9613 </r>
       <r>    -0.5542    13.6497   251.7780 </r>
       <r>    -0.4565    13.6463   253.1111 </r>
       <r>    -0.3588    56.8908   258.6691 </r>
       <r>    -0.2611    15.3406   260.8322 </r>
       <r>    -0.1634    68.2180   268.0013 </r>
       <r>    -0.0657    40.7452   271.9819 </r>
       <r>     0.0320    20.8290   274.0349 </r>
       <r>     0.1297    17.6166   277.0544 </r>
       <r>     0.2274    36.7276   280.6992 </r>
       <r>     0.3251    15.5306   282.6296 </r>
       <r>     0.4228    15.9225   284.4444 </r>
       <r>     0.5205     0.0085   284.4453 </r>
       <r>     0.6182    19.5575   286.3560 </r>
       <r>     0.7159     0.0000   287.5556 </r>
       <r>     0.8136     2.9975   287.8484 </r>
       <r>     0.9113     0.0000   288.0000 </r>
       <r>     1.0090     0.0000   288.0000 </r>
       <r>     1.1067     0.0000   288.0000 </r>
       <r>     1.2044     0.0000   288.0000 </r>
       <r>     1.3021     0.0000   288.0000 </r>
       <r>     1.3998     0.0000   288.0000 </r>
       <r>     1.4974     0.0000   288.0000 </r>
       <r>     1.5951     0.0000   288.0000 </r>
       <r>     1.6928     0.0000   288.0000 </r>
       <r>     1.7905     0.0000   288.0000 </r>
       <r>     1.8882     0.0000   288.0000 </r>
       <r>     1.9859     1.7297   288.1690 </r>
       <r>     2.0836     0.0000   288.2222 </r>
       <r>     2.1813     0.0000   288.2222 </r>
       <r>     2.2790     0.0000   288.2222 </r>
       <r>     2.3767     0.0000   288.2222 </r>
       <r>     2.4744     0.0000   288.2222 </r>
       <r>     2.5721     0.0000   288.2222 </r>
       <r>     2.6698     0.0000   288.2222 </r>
       <r>     2.7675     0.0000   288.2222 </r>
       <r>     2.8652     0.0000   288.2222 </r>
       <r>     2.9629     0.0000   288.2222 </r>
       <r>     3.0606     0.0000   288.2222 </r>
       <r>     3.1583     0.0032   288.2225 </r>
       <r>     3.2560    13.6447   289.5556 </r>
       <r>     3.3537     0.0000   289.5556 </r>
       <r>     3.4514     2.0286   289.7537 </r>
       <r>     3.5490     0.0000   289.7778 </r>
       <r>     3.6467     0.0000   289.7778 </r>
       <r>     3.7444     0.0000   289.7778 </r>
       <r>     3.8421     0.0000   289.7778 </r>
       <r>     3.9398     0.0000   289.7778 </r>
       <r>     4.0375     0.0000   289.7778 </r>
       <r>     4.1352     0.0000   289.7778 </r>
       <r>     4.2329    13.5496   291.1015 </r>
       <r>     4.3306     0.0000   291.1111 </r>
       <r>     4.4283     0.0000   291.1111 </r>
       <r>     4.5260     0.0000   291.1111 </r>
       <r>     4.6237     3.2571   291.4293 </r>
       <r>     4.7214     0.0000   292.4444 </r>
       <r>     4.8191     0.0000   292.4444 </r>
       <r>     4.9168     2.2746   292.6667 </r>
       <r>     5.0145     3.3564   292.9946 </r>
       <r>     5.1122     0.0000   294.0000 </r>
       <r>     5.2099     0.0000   294.0000 </r>
       <r>     5.3076    13.0478   295.2747 </r>
       <r>     5.4053     0.0000   295.3333 </r>
       <r>     5.5030    11.7414   296.4804 </r>
       <r>     5.6007     2.3824   296.8994 </r>
       <r>     5.6983     0.0000   298.0000 </r>
       <r>     5.7960     2.2740   298.2222 </r>
       <r>     5.8937     0.0000   298.2222 </r>
       <r>     5.9914     0.0000   298.2222 </r>
       <r>     6.0891     0.0000   298.2222 </r>
       <r>     6.1868     0.0000   298.2222 </r>
       <r>     6.2845     6.8239   298.8889 </r>
       <r>     6.3822     6.8239   299.5556 </r>
       <r>     6.4799     0.2538   299.5804 </r>
       <r>     6.5776    13.6478   303.5556 </r>
       <r>     6.6753    38.6476   307.3312 </r>
       <r>     6.7730    13.6470   308.8889 </r>
       <r>     6.8707     6.2017   309.4948 </r>
       <r>     6.9684     0.0000   309.5556 </r>
       <r>     7.0661     0.0000   309.5556 </r>
       <r>     7.1638     0.0000   309.5556 </r>
       <r>     7.2615     0.0000   309.5556 </r>
       <r>     7.3592     0.0000   309.5556 </r>
       <r>     7.4569    27.2957   312.2222 </r>
       <r>     7.5546     5.3323   312.7432 </r>
       <r>     7.6523     0.0000   312.8889 </r>
       <r>     7.7499     0.0015   312.8890 </r>
       <r>     7.8476    22.8813   315.1244 </r>
       <r>     7.9453     0.0000   315.5556 </r>
       <r>     8.0430     0.0000   315.5556 </r>
       <r>     8.1407     0.0000   315.5556 </r>
       <r>     8.2384    27.2801   318.2207 </r>
       <r>     8.3361     9.0986   319.1111 </r>
       <r>     8.4338     0.0225   319.1133 </r>
       <r>     8.5315    17.8867   321.0813 </r>
       <r>     8.6292     0.0000   321.1111 </r>
       <r>     8.7269     4.5493   321.5556 </r>
       <r>     8.8246     4.1910   321.9650 </r>
       <r>     8.9223    25.0179   327.1108 </r>
       <r>     9.0200     7.2106   327.8156 </r>
       <r>     9.1177     9.3457   329.5797 </r>
       <r>     9.2154    47.6074   336.4347 </r>
       <r>     9.3131    25.9363   338.9783 </r>
       <r>     9.4108    13.6402   340.4437 </r>
       <r>     9.5085     1.0445   340.5465 </r>
       <r>     9.6062     0.0000   341.7778 </r>
       <r>     9.7039    13.6442   343.1108 </r>
       <r>     9.8015     9.0986   344.0000 </r>
       <r>     9.8992     0.0000   344.0000 </r>
       <r>     9.9969     0.0000   344.0000 </r>
       <r>    10.0946     0.0000   344.0000 </r>
       <r>    10.1923     0.0000   344.0000 </r>
       <r>    10.2900     0.0000   344.0000 </r>
       <r>    10.3877     0.0000   344.0000 </r>
       <r>    10.4854     0.0000   344.0000 </r>
       <r>    10.5831     0.0000   344.0000 </r>
       <r>    10.6808     0.0000   344.0000 </r>
       <r>    10.7785     0.0000   344.0000 </r>
       <r>    10.8762     0.0000   344.0000 </r>
       <r>    10.9739     0.0000   344.0000 </r>
       <r>    11.0716     0.0000   344.0000 </r>
      </set>
     </set>
    </array>
   </total>
  </dos>
 </calculation>
 <structure name="finalpos" >
  <crystal>
   <varray name="basis" >
    <v>       6.57433747       0.00000000       0.00000000 </v>
    <v>      -3.28716874       5.69354326       0.00000000 </v>
    <v>       0.00000000       0.00000000      10.60915421 </v>
   </varray>
   <i name="volume">    397.11416701 </i>
   <varray name="rec_basis" >
    <v>       0.15210658       0.08781878       0.00000000 </v>
    <v>       0.00000000       0.17563755       0.00000000 </v>
    <v>       0.00000000       0.00000000       0.09425822 </v>
   </varray>
  </crystal>
  <varray name="positions" >
   <v>       0.16818773       0.33333333       0.49984072 </v>
   <v>       0.66666667       0.33333333       0.49984072 </v>
   <v>       0.16666667       0.83333333       0.49984072 </v>
   <v>       0.66666667       0.83333333       0.49984072 </v>
   <v>       0.16666667       0.33333333       0.99984072 </v>
   <v>       0.66666667       0.33333333       0.99984072 </v>
   <v>       0.16666667       0.83333333       0.99984072 </v>
   <v>       0.66666667       0.83333333       0.99984072 </v>
   <v>       0.33333333       0.16666667       0.24984072 </v>
   <v>       0.83333333       0.16666667       0.24984072 </v>
   <v>       0.33333333       0.66666667       0.24984072 </v>
   <v>       0.83333333       0.66666667       0.24984072 </v>
   <v>       0.33333333       0.16666667       0.74984072 </v>
   <v>       0.83333333       0.16666667       0.74984072 </v>
   <v>       0.33333333       0.66666667       0.74984072 </v>
   <v>       0.83333333       0.66666667       0.74984072 </v>
   <v>       0.16666667       0.33333333       0.18938078 </v>
   <v>       0.66666667       0.33333333       0.18938078 </v>
   <v>       0.16666667       0.83333333       0.18938078 </v>
   <v>       0.66666667       0.83333333       0.18938078 </v>
   <v>       0.16666667       0.33333333       0.68938078 </v>
   <v>       0.66666667       0.33333333       0.68938078 </v>
   <v>       0.16666667       0.83333333       0.68938078 </v>
   <v>       0.66666667       0.83333333       0.68938078 </v>
   <v>       0.33333333       0.16666667       0.43938078 </v>
   <v>       0.83333333       0.16666667       0.43938078 </v>
   <v>       0.33333333       0.66666667       0.43938078 </v>
   <v>       0.83333333       0.66666667       0.43938078 </v>
   <v>       0.33333333       0.16666667       0.93938078 </v>
   <v>       0.83333333       0.16666667       0.93938078 </v>
   <v>       0.33333333       0.66666667       0.93938078 </v>
   <v>       0.83333333       0.66666667       0.93938078 </v>
  </varray>
 </structure>
</modeling>
