14.400
2.01670663 0 0 0 2.01670663 0 0 0 2.01670663
1.05312 0 0 0 1.05312 0 0 0 1.05312
1.05312 0 0 0 1.05312 0 0 0 1.05312
1.05312 0 0 0 1.05312 0 0 0 1.05312
1.05312 0 0 0 1.05312 0 0 0 1.05312
-1.05426 0 0 0 -1.05426 0 0 0 -1.05426
-1.05426 0 0 0 -1.05426 0 0 0 -1.05426
-1.05426 0 0 0 -1.05426 0 0 0 -1.05426
-1.05426 0 0 0 -1.05426 0 0 0 -1.05426
