64   
48   

1    
  0.0100000000000000   0.0000000000000000   0.0000000000000000
  -0.0351793900    0.0000000000    0.0000000000
   0.0073702500    0.0000000000    0.0000000000
  -0.0005858400    0.0000000000    0.0000000000
   0.0006597400    0.0000000000    0.0000000000
  -0.0005858400    0.0000000000    0.0000000000
   0.0006597400    0.0000000000    0.0000000000
  -0.0005237500    0.0000000000    0.0000000000
   0.0005282300    0.0000000000    0.0000000000
  -0.0022392400   -0.0000111000   -0.0000111000
   0.0014338300    0.0000029900    0.0000029900
  -0.0022392400    0.0000111000   -0.0000111000
   0.0014338300   -0.0000029900    0.0000029900
  -0.0022392400   -0.0000111000    0.0000111000
   0.0014338300    0.0000029900   -0.0000029900
  -0.0022392400    0.0000111000    0.0000111000
   0.0014338300   -0.0000029900   -0.0000029900
   0.0021138400    0.0000000000    0.0059025900
   0.0021183400    0.0000000000   -0.0058481000
  -0.0000062600    0.0000000000    0.0000636400
   0.0000009400    0.0000000000   -0.0000668000
   0.0021138400    0.0000000000   -0.0059025900
   0.0021183400    0.0000000000    0.0058481000
  -0.0000062600    0.0000000000   -0.0000636400
   0.0000009400    0.0000000000    0.0000668000
   0.0021138400    0.0059025900    0.0000000000
   0.0021183400   -0.0058481000    0.0000000000
   0.0021138400   -0.0059025900    0.0000000000
   0.0021183400    0.0058481000    0.0000000000
  -0.0000062600    0.0000636400    0.0000000000
   0.0000009400   -0.0000668000    0.0000000000
  -0.0000062600   -0.0000636400    0.0000000000
   0.0000009400    0.0000668000    0.0000000000
  -0.0002761000   -0.0013631800   -0.0013631800
  -0.0002890000    0.0013550900    0.0013550900
  -0.0002761000    0.0013631800   -0.0013631800
  -0.0002890000   -0.0013550900    0.0013550900
  -0.0002761000   -0.0013631800    0.0013631800
  -0.0002890000    0.0013550900   -0.0013550900
  -0.0002761000    0.0013631800    0.0013631800
  -0.0002890000   -0.0013550900   -0.0013550900
   0.0013587300    0.0000000000    0.0000000000
   0.0005863000    0.0000000000    0.0000000000
   0.0000791100    0.0000000000    0.0000000000
   0.0000648400    0.0000000000    0.0000000000
   0.0000791100    0.0000000000    0.0000000000
   0.0000648400    0.0000000000    0.0000000000
   0.0000075200    0.0000000000    0.0000000000
   0.0000021400    0.0000000000    0.0000000000
   0.0063922000   -0.0000099000    0.0000000000
  -0.0028686200   -0.0000058500    0.0000000000
   0.0063922000    0.0000099000    0.0000000000
  -0.0028686200    0.0000058500    0.0000000000
   0.0007551800    0.0000041900    0.0000000000
  -0.0007815400   -0.0000006600    0.0000000000
   0.0007551800   -0.0000041900    0.0000000000
  -0.0007815400    0.0000006600    0.0000000000
   0.0063922000    0.0000000000   -0.0000099000
  -0.0028686200    0.0000000000   -0.0000058500
   0.0007551800    0.0000000000    0.0000041900
  -0.0007815400    0.0000000000   -0.0000006600
   0.0063922000    0.0000000000    0.0000099000
  -0.0028686200    0.0000000000    0.0000058500
   0.0007551800    0.0000000000   -0.0000041900
  -0.0007815400    0.0000000000    0.0000006600

1    
 -0.0100000000000000   0.0000000000000000   0.0000000000000000
   0.0351772600    0.0000000000    0.0000000000
  -0.0073679400    0.0000000000    0.0000000000
   0.0005847900    0.0000000000    0.0000000000
  -0.0006586500    0.0000000000    0.0000000000
   0.0005847900    0.0000000000    0.0000000000
  -0.0006586500    0.0000000000    0.0000000000
   0.0005231400    0.0000000000    0.0000000000
  -0.0005276000    0.0000000000    0.0000000000
   0.0022375700   -0.0000130800   -0.0000130800
  -0.0014321000    0.0000016900    0.0000016900
   0.0022375700    0.0000130800   -0.0000130800
  -0.0014321000   -0.0000016900    0.0000016900
   0.0022375700   -0.0000130800    0.0000130800
  -0.0014321000    0.0000016900   -0.0000016900
   0.0022375700    0.0000130800    0.0000130800
  -0.0014321000   -0.0000016900   -0.0000016900
  -0.0021187100    0.0000000000   -0.0058467800
  -0.0021136400    0.0000000000    0.0059027700
  -0.0000005900    0.0000000000   -0.0000638500
   0.0000058100    0.0000000000    0.0000661300
  -0.0021187100    0.0000000000    0.0058467800
  -0.0021136400    0.0000000000   -0.0059027700
  -0.0000005900    0.0000000000    0.0000638500
   0.0000058100    0.0000000000   -0.0000661300
  -0.0021187100   -0.0058467800    0.0000000000
  -0.0021136400    0.0059027700    0.0000000000
  -0.0021187100    0.0058467800    0.0000000000
  -0.0021136400   -0.0059027700    0.0000000000
  -0.0000005900   -0.0000638500    0.0000000000
   0.0000058100    0.0000661300    0.0000000000
  -0.0000005900    0.0000638500    0.0000000000
   0.0000058100   -0.0000661300    0.0000000000
   0.0002883500    0.0013552200    0.0013552200
   0.0002766700   -0.0013642800   -0.0013642800
   0.0002883500   -0.0013552200    0.0013552200
   0.0002766700    0.0013642800   -0.0013642800
   0.0002883500    0.0013552200   -0.0013552200
   0.0002766700   -0.0013642800    0.0013642800
   0.0002883500   -0.0013552200   -0.0013552200
   0.0002766700    0.0013642800    0.0013642800
  -0.0005867500    0.0000000000    0.0000000000
  -0.0013561500    0.0000000000    0.0000000000
  -0.0000655300    0.0000000000    0.0000000000
  -0.0000782000    0.0000000000    0.0000000000
  -0.0000655300    0.0000000000    0.0000000000
  -0.0000782000    0.0000000000    0.0000000000
  -0.0000021400    0.0000000000    0.0000000000
  -0.0000077900    0.0000000000    0.0000000000
  -0.0063916900   -0.0000115700    0.0000000000
   0.0028679800   -0.0000071000    0.0000000000
  -0.0063916900    0.0000115700    0.0000000000
   0.0028679800    0.0000071000    0.0000000000
  -0.0007531200    0.0000043600    0.0000000000
   0.0007792600    0.0000002600    0.0000000000
  -0.0007531200   -0.0000043600    0.0000000000
   0.0007792600   -0.0000002600    0.0000000000
  -0.0063916900    0.0000000000   -0.0000115700
   0.0028679800    0.0000000000   -0.0000071000
  -0.0007531200    0.0000000000    0.0000043600
   0.0007792600    0.0000000000    0.0000002600
  -0.0063916900    0.0000000000    0.0000115700
   0.0028679800    0.0000000000    0.0000071000
  -0.0007531200    0.0000000000   -0.0000043600
   0.0007792600    0.0000000000   -0.0000002600

1    
  0.0000000000000000   0.0100000000000000   0.0000000000000000
   0.0000000000   -0.0351795000    0.0000000000
   0.0000000000   -0.0005845700    0.0000000000
   0.0000000000    0.0073703300    0.0000000000
   0.0000000000    0.0006585000    0.0000000000
   0.0000000000   -0.0005845700    0.0000000000
   0.0000000000   -0.0005227100    0.0000000000
   0.0000000000    0.0006585000    0.0000000000
   0.0000000000    0.0005272100    0.0000000000
   0.0000000000    0.0021145400    0.0059049600
   0.0000000000   -0.0000066400    0.0000644300
   0.0000000000    0.0021176300   -0.0058469800
   0.0000000000    0.0000013200   -0.0000658100
   0.0000000000    0.0021145400   -0.0059049600
   0.0000000000   -0.0000066400   -0.0000644300
   0.0000000000    0.0021176300    0.0058469800
   0.0000000000    0.0000013200    0.0000658100
  -0.0000114600   -0.0022388100   -0.0000114600
   0.0000114600   -0.0022388100   -0.0000114600
   0.0000015400    0.0014334200    0.0000015400
  -0.0000015400    0.0014334200    0.0000015400
  -0.0000114600   -0.0022388100    0.0000114600
   0.0000114600   -0.0022388100    0.0000114600
   0.0000015400    0.0014334200   -0.0000015400
  -0.0000015400    0.0014334200   -0.0000015400
   0.0059049600    0.0021145400    0.0000000000
  -0.0059049600    0.0021145400    0.0000000000
  -0.0058469800    0.0021176300    0.0000000000
   0.0058469800    0.0021176300    0.0000000000
   0.0000644300   -0.0000066400    0.0000000000
  -0.0000644300   -0.0000066400    0.0000000000
  -0.0000658100    0.0000013200    0.0000000000
   0.0000658100    0.0000013200    0.0000000000
  -0.0013635500   -0.0002760100   -0.0013635500
   0.0013635500   -0.0002760100   -0.0013635500
   0.0013547300   -0.0002889200    0.0013547300
  -0.0013547300   -0.0002889200    0.0013547300
  -0.0013635500   -0.0002760100    0.0013635500
   0.0013635500   -0.0002760100    0.0013635500
   0.0013547300   -0.0002889200   -0.0013547300
  -0.0013547300   -0.0002889200   -0.0013547300
  -0.0000110900    0.0063918500    0.0000000000
   0.0000110900    0.0063918500    0.0000000000
  -0.0000062100   -0.0028679600    0.0000000000
   0.0000062100   -0.0028679600    0.0000000000
   0.0000041800    0.0007542800    0.0000000000
  -0.0000041800    0.0007542800    0.0000000000
  -0.0000005400   -0.0007805600    0.0000000000
   0.0000005400   -0.0007805600    0.0000000000
   0.0000000000    0.0013575800    0.0000000000
   0.0000000000    0.0000789400    0.0000000000
   0.0000000000    0.0005856400    0.0000000000
   0.0000000000    0.0000646100    0.0000000000
   0.0000000000    0.0000789400    0.0000000000
   0.0000000000    0.0000080000    0.0000000000
   0.0000000000    0.0000646100    0.0000000000
   0.0000000000    0.0000019800    0.0000000000
   0.0000000000    0.0063918500   -0.0000110900
   0.0000000000    0.0007542800    0.0000041800
   0.0000000000   -0.0028679600   -0.0000062100
   0.0000000000   -0.0007805600   -0.0000005400
   0.0000000000    0.0063918500    0.0000110900
   0.0000000000    0.0007542800   -0.0000041800
   0.0000000000   -0.0028679600    0.0000062100
   0.0000000000   -0.0007805600    0.0000005400

1    
  0.0000000000000000  -0.0100000000000000   0.0000000000000000
   0.0000000000    0.0351787300    0.0000000000
   0.0000000000    0.0005849300    0.0000000000
   0.0000000000   -0.0073699000    0.0000000000
   0.0000000000   -0.0006589500    0.0000000000
   0.0000000000    0.0005849300    0.0000000000
   0.0000000000    0.0005225300    0.0000000000
   0.0000000000   -0.0006589500    0.0000000000
   0.0000000000   -0.0005272000    0.0000000000
   0.0000000000   -0.0021181200   -0.0058474100
   0.0000000000   -0.0000009000   -0.0000660700
   0.0000000000   -0.0021140800    0.0059036100
   0.0000000000    0.0000061500    0.0000646800
   0.0000000000   -0.0021181200    0.0058474100
   0.0000000000   -0.0000009000    0.0000660700
   0.0000000000   -0.0021140800   -0.0059036100
   0.0000000000    0.0000061500   -0.0000646800
  -0.0000114900    0.0022386700   -0.0000114900
   0.0000114900    0.0022386700   -0.0000114900
   0.0000024400   -0.0014334200    0.0000024400
  -0.0000024400   -0.0014334200    0.0000024400
  -0.0000114900    0.0022386700    0.0000114900
   0.0000114900    0.0022386700    0.0000114900
   0.0000024400   -0.0014334200   -0.0000024400
  -0.0000024400   -0.0014334200   -0.0000024400
  -0.0058474100   -0.0021181200    0.0000000000
   0.0058474100   -0.0021181200    0.0000000000
   0.0059036100   -0.0021140800    0.0000000000
  -0.0059036100   -0.0021140800    0.0000000000
  -0.0000660700   -0.0000009000    0.0000000000
   0.0000660700   -0.0000009000    0.0000000000
   0.0000646800    0.0000061500    0.0000000000
  -0.0000646800    0.0000061500    0.0000000000
   0.0013542900    0.0002879500    0.0013542900
  -0.0013542900    0.0002879500    0.0013542900
  -0.0013641800    0.0002773900   -0.0013641800
   0.0013641800    0.0002773900   -0.0013641800
   0.0013542900    0.0002879500   -0.0013542900
  -0.0013542900    0.0002879500   -0.0013542900
  -0.0013641800    0.0002773900    0.0013641800
   0.0013641800    0.0002773900    0.0013641800
  -0.0000125200   -0.0063922200    0.0000000000
   0.0000125200   -0.0063922200    0.0000000000
  -0.0000071200    0.0028677300    0.0000000000
   0.0000071200    0.0028677300    0.0000000000
   0.0000037300   -0.0007549400    0.0000000000
  -0.0000037300   -0.0007549400    0.0000000000
  -0.0000004300    0.0007810100    0.0000000000
   0.0000004300    0.0007810100    0.0000000000
   0.0000000000   -0.0005868400    0.0000000000
   0.0000000000   -0.0000659400    0.0000000000
   0.0000000000   -0.0013532900    0.0000000000
   0.0000000000   -0.0000779600    0.0000000000
   0.0000000000   -0.0000659400    0.0000000000
   0.0000000000   -0.0000022900    0.0000000000
   0.0000000000   -0.0000779600    0.0000000000
   0.0000000000   -0.0000068200    0.0000000000
   0.0000000000   -0.0063922200   -0.0000125200
   0.0000000000   -0.0007549400    0.0000037300
   0.0000000000    0.0028677300   -0.0000071200
   0.0000000000    0.0007810100   -0.0000004300
   0.0000000000   -0.0063922200    0.0000125200
   0.0000000000   -0.0007549400   -0.0000037300
   0.0000000000    0.0028677300    0.0000071200
   0.0000000000    0.0007810100    0.0000004300

1    
  0.0000000000000000   0.0000000000000000   0.0100000000000000
   0.0000000000    0.0000000000   -0.0351756200
   0.0000000000    0.0000000000   -0.0005834500
   0.0000000000    0.0000000000   -0.0005834500
   0.0000000000    0.0000000000   -0.0005239500
   0.0000000000    0.0000000000    0.0073666200
   0.0000000000    0.0000000000    0.0006571700
   0.0000000000    0.0000000000    0.0006571700
   0.0000000000    0.0000000000    0.0005283500
   0.0000000000    0.0059018500    0.0021126400
   0.0000000000    0.0000623600   -0.0000047500
   0.0000000000   -0.0059018500    0.0021126400
   0.0000000000   -0.0000623600   -0.0000047500
   0.0000000000   -0.0058479700    0.0021196800
   0.0000000000   -0.0000655000   -0.0000005800
   0.0000000000    0.0058479700    0.0021196800
   0.0000000000    0.0000655000   -0.0000005800
   0.0059018500    0.0000000000    0.0021126400
  -0.0059018500    0.0000000000    0.0021126400
   0.0000623600    0.0000000000   -0.0000047500
  -0.0000623600    0.0000000000   -0.0000047500
  -0.0058479700    0.0000000000    0.0021196800
   0.0058479700    0.0000000000    0.0021196800
  -0.0000655000    0.0000000000   -0.0000005800
   0.0000655000    0.0000000000   -0.0000005800
  -0.0000121300   -0.0000121300   -0.0022383000
   0.0000121300   -0.0000121300   -0.0022383000
  -0.0000121300    0.0000121300   -0.0022383000
   0.0000121300    0.0000121300   -0.0022383000
   0.0000047400    0.0000047400    0.0014327000
  -0.0000047400    0.0000047400    0.0014327000
   0.0000047400   -0.0000047400    0.0014327000
  -0.0000047400   -0.0000047400    0.0014327000
  -0.0013649400   -0.0013649400   -0.0002765200
   0.0013649400   -0.0013649400   -0.0002765200
  -0.0013649400    0.0013649400   -0.0002765200
   0.0013649400    0.0013649400   -0.0002765200
   0.0013551800    0.0013551800   -0.0002884600
  -0.0013551800    0.0013551800   -0.0002884600
   0.0013551800   -0.0013551800   -0.0002884600
  -0.0013551800   -0.0013551800   -0.0002884600
  -0.0000118400    0.0000000000    0.0063909200
   0.0000118400    0.0000000000    0.0063909200
   0.0000035500    0.0000000000    0.0007520600
  -0.0000035500    0.0000000000    0.0007520600
  -0.0000070800    0.0000000000   -0.0028673300
   0.0000070800    0.0000000000   -0.0028673300
  -0.0000000800    0.0000000000   -0.0007786300
   0.0000000800    0.0000000000   -0.0007786300
   0.0000000000   -0.0000118400    0.0063909200
   0.0000000000    0.0000035500    0.0007520600
   0.0000000000    0.0000118400    0.0063909200
   0.0000000000   -0.0000035500    0.0007520600
   0.0000000000   -0.0000070800   -0.0028673300
   0.0000000000   -0.0000000800   -0.0007786300
   0.0000000000    0.0000070800   -0.0028673300
   0.0000000000    0.0000000800   -0.0007786300
   0.0000000000    0.0000000000    0.0013572200
   0.0000000000    0.0000000000    0.0000787400
   0.0000000000    0.0000000000    0.0000787400
   0.0000000000    0.0000000000    0.0000081200
   0.0000000000    0.0000000000    0.0005878000
   0.0000000000    0.0000000000    0.0000655400
   0.0000000000    0.0000000000    0.0000655400
   0.0000000000    0.0000000000    0.0000018100

1    
  0.0000000000000000   0.0000000000000000  -0.0100000000000000
   0.0000000000    0.0000000000    0.0351788900
   0.0000000000    0.0000000000    0.0005848300
   0.0000000000    0.0000000000    0.0005848300
   0.0000000000    0.0000000000    0.0005234100
   0.0000000000    0.0000000000   -0.0073700400
   0.0000000000    0.0000000000   -0.0006587900
   0.0000000000    0.0000000000   -0.0006587900
   0.0000000000    0.0000000000   -0.0005279200
   0.0000000000   -0.0058476200   -0.0021179500
   0.0000000000   -0.0000654200   -0.0000010300
   0.0000000000    0.0058476200   -0.0021179500
   0.0000000000    0.0000654200   -0.0000010300
   0.0000000000    0.0059037700   -0.0021142900
   0.0000000000    0.0000643600    0.0000063200
   0.0000000000   -0.0059037700   -0.0021142900
   0.0000000000   -0.0000643600    0.0000063200
  -0.0058476200    0.0000000000   -0.0021179500
   0.0058476200    0.0000000000   -0.0021179500
  -0.0000654200    0.0000000000   -0.0000010300
   0.0000654200    0.0000000000   -0.0000010300
   0.0059037700    0.0000000000   -0.0021142900
  -0.0059037700    0.0000000000   -0.0021142900
   0.0000643600    0.0000000000    0.0000063200
  -0.0000643600    0.0000000000    0.0000063200
  -0.0000116000   -0.0000116000    0.0022391600
   0.0000116000   -0.0000116000    0.0022391600
  -0.0000116000    0.0000116000    0.0022391600
   0.0000116000    0.0000116000    0.0022391600
   0.0000019700    0.0000019700   -0.0014337500
  -0.0000019700    0.0000019700   -0.0014337500
   0.0000019700   -0.0000019700   -0.0014337500
  -0.0000019700   -0.0000019700   -0.0014337500
   0.0013539000    0.0013539000    0.0002878600
  -0.0013539000    0.0013539000    0.0002878600
   0.0013539000   -0.0013539000    0.0002878600
  -0.0013539000   -0.0013539000    0.0002878600
  -0.0013640700   -0.0013640700    0.0002767200
   0.0013640700   -0.0013640700    0.0002767200
  -0.0013640700    0.0013640700    0.0002767200
   0.0013640700    0.0013640700    0.0002767200
  -0.0000116800    0.0000000000   -0.0063910500
   0.0000116800    0.0000000000   -0.0063910500
   0.0000028200    0.0000000000   -0.0007543200
  -0.0000028200    0.0000000000   -0.0007543200
  -0.0000061400    0.0000000000    0.0028678000
   0.0000061400    0.0000000000    0.0028678000
  -0.0000008600    0.0000000000    0.0007803400
   0.0000008600    0.0000000000    0.0007803400
   0.0000000000   -0.0000116800   -0.0063910500
   0.0000000000    0.0000028200   -0.0007543200
   0.0000000000    0.0000116800   -0.0063910500
   0.0000000000   -0.0000028200   -0.0007543200
   0.0000000000   -0.0000061400    0.0028678000
   0.0000000000   -0.0000008600    0.0007803400
   0.0000000000    0.0000061400    0.0028678000
   0.0000000000    0.0000008600    0.0007803400
   0.0000000000    0.0000000000   -0.0005875500
   0.0000000000    0.0000000000   -0.0000652900
   0.0000000000    0.0000000000   -0.0000652900
   0.0000000000    0.0000000000   -0.0000018300
   0.0000000000    0.0000000000   -0.0013548500
   0.0000000000    0.0000000000   -0.0000783800
   0.0000000000    0.0000000000   -0.0000783800
   0.0000000000    0.0000000000   -0.0000080200

9    
  0.0100000000000000   0.0000000000000000   0.0000000000000000
  -0.0022392400    0.0000116600    0.0000116600
   0.0014338800   -0.0000027200   -0.0000027200
  -0.0022392400   -0.0000116600    0.0000116600
   0.0014338800    0.0000027200   -0.0000027200
  -0.0022392400    0.0000116600   -0.0000116600
   0.0014338800   -0.0000027200    0.0000027200
  -0.0022392400   -0.0000116600   -0.0000116600
   0.0014338800    0.0000027200    0.0000027200
  -0.0351783800    0.0000000000    0.0000000000
   0.0073694500    0.0000000000    0.0000000000
  -0.0005848700    0.0000000000    0.0000000000
   0.0006588000    0.0000000000    0.0000000000
  -0.0005848700    0.0000000000    0.0000000000
   0.0006588000    0.0000000000    0.0000000000
  -0.0005228000    0.0000000000    0.0000000000
   0.0005272600    0.0000000000    0.0000000000
   0.0021139100   -0.0059027200    0.0000000000
   0.0021182900    0.0058480200    0.0000000000
   0.0021139100    0.0059027200    0.0000000000
   0.0021182900   -0.0058480200    0.0000000000
  -0.0000058900   -0.0000646300    0.0000000000
   0.0000006300    0.0000658000    0.0000000000
  -0.0000058900    0.0000646300    0.0000000000
   0.0000006300   -0.0000658000    0.0000000000
   0.0021139100    0.0000000000   -0.0059027200
   0.0021182900    0.0000000000    0.0058480200
  -0.0000058900    0.0000000000   -0.0000646300
   0.0000006300    0.0000000000    0.0000658000
   0.0021139100    0.0000000000    0.0059027200
   0.0021182900    0.0000000000   -0.0058480200
  -0.0000058900    0.0000000000    0.0000646300
   0.0000006300    0.0000000000   -0.0000658000
   0.0013562800    0.0000000000    0.0000000000
   0.0005850500    0.0000000000    0.0000000000
   0.0000787800    0.0000000000    0.0000000000
   0.0000658200    0.0000000000    0.0000000000
   0.0000787800    0.0000000000    0.0000000000
   0.0000658200    0.0000000000    0.0000000000
   0.0000075400    0.0000000000    0.0000000000
   0.0000031600    0.0000000000    0.0000000000
  -0.0002767300    0.0013638800    0.0013638800
  -0.0002883700   -0.0013542500   -0.0013542500
  -0.0002767300   -0.0013638800    0.0013638800
  -0.0002883700    0.0013542500   -0.0013542500
  -0.0002767300    0.0013638800   -0.0013638800
  -0.0002883700   -0.0013542500    0.0013542500
  -0.0002767300   -0.0013638800   -0.0013638800
  -0.0002883700    0.0013542500    0.0013542500
   0.0063922200    0.0000000000    0.0000105400
  -0.0028683100    0.0000000000    0.0000067900
   0.0007543900    0.0000000000   -0.0000037100
  -0.0007809400    0.0000000000    0.0000008900
   0.0063922200    0.0000000000   -0.0000105400
  -0.0028683100    0.0000000000   -0.0000067900
   0.0007543900    0.0000000000    0.0000037100
  -0.0007809400    0.0000000000   -0.0000008900
   0.0063922200    0.0000105400    0.0000000000
  -0.0028683100    0.0000067900    0.0000000000
   0.0063922200   -0.0000105400    0.0000000000
  -0.0028683100   -0.0000067900    0.0000000000
   0.0007543900   -0.0000037100    0.0000000000
  -0.0007809400    0.0000008900    0.0000000000
   0.0007543900    0.0000037100    0.0000000000
  -0.0007809400   -0.0000008900    0.0000000000

9    
 -0.0100000000000000   0.0000000000000000   0.0000000000000000
   0.0022388200    0.0000119200    0.0000119200
  -0.0014332100   -0.0000021600   -0.0000021600
   0.0022388200   -0.0000119200    0.0000119200
  -0.0014332100    0.0000021600   -0.0000021600
   0.0022388200    0.0000119200   -0.0000119200
  -0.0014332100   -0.0000021600    0.0000021600
   0.0022388200   -0.0000119200   -0.0000119200
  -0.0014332100    0.0000021600    0.0000021600
   0.0351755800    0.0000000000    0.0000000000
  -0.0073660700    0.0000000000    0.0000000000
   0.0005837200    0.0000000000    0.0000000000
  -0.0006574100    0.0000000000    0.0000000000
   0.0005837200    0.0000000000    0.0000000000
  -0.0006574100    0.0000000000    0.0000000000
   0.0005219300    0.0000000000    0.0000000000
  -0.0005261900    0.0000000000    0.0000000000
  -0.0021184000    0.0058462300    0.0000000000
  -0.0021138300   -0.0059027500    0.0000000000
  -0.0021184000   -0.0058462300    0.0000000000
  -0.0021138300    0.0059027500    0.0000000000
  -0.0000009900    0.0000666800    0.0000000000
   0.0000062800   -0.0000634300    0.0000000000
  -0.0000009900   -0.0000666800    0.0000000000
   0.0000062800    0.0000634300    0.0000000000
  -0.0021184000    0.0000000000    0.0058462300
  -0.0021138300    0.0000000000   -0.0059027500
  -0.0000009900    0.0000000000    0.0000666800
   0.0000062800    0.0000000000   -0.0000634300
  -0.0021184000    0.0000000000   -0.0058462300
  -0.0021138300    0.0000000000    0.0059027500
  -0.0000009900    0.0000000000   -0.0000666800
   0.0000062800    0.0000000000    0.0000634300
  -0.0005874000    0.0000000000    0.0000000000
  -0.0013588400    0.0000000000    0.0000000000
  -0.0000655600    0.0000000000    0.0000000000
  -0.0000786500    0.0000000000    0.0000000000
  -0.0000655600    0.0000000000    0.0000000000
  -0.0000786500    0.0000000000    0.0000000000
  -0.0000037500    0.0000000000    0.0000000000
  -0.0000065500    0.0000000000    0.0000000000
   0.0002881600   -0.0013550900   -0.0013550900
   0.0002766400    0.0013650100    0.0013650100
   0.0002881600    0.0013550900   -0.0013550900
   0.0002766400   -0.0013650100    0.0013650100
   0.0002881600   -0.0013550900    0.0013550900
   0.0002766400    0.0013650100   -0.0013650100
   0.0002881600    0.0013550900    0.0013550900
   0.0002766400   -0.0013650100   -0.0013650100
  -0.0063930700    0.0000000000    0.0000097600
   0.0028698200    0.0000000000    0.0000058200
  -0.0007540100    0.0000000000   -0.0000030400
   0.0007805600    0.0000000000    0.0000023200
  -0.0063930700    0.0000000000   -0.0000097600
   0.0028698200    0.0000000000   -0.0000058200
  -0.0007540100    0.0000000000    0.0000030400
   0.0007805600    0.0000000000   -0.0000023200
  -0.0063930700    0.0000097600    0.0000000000
   0.0028698200    0.0000058200    0.0000000000
  -0.0063930700   -0.0000097600    0.0000000000
   0.0028698200   -0.0000058200    0.0000000000
  -0.0007540100   -0.0000030400    0.0000000000
   0.0007805600    0.0000023200    0.0000000000
  -0.0007540100    0.0000030400    0.0000000000
   0.0007805600   -0.0000023200    0.0000000000

9    
  0.0000000000000000   0.0100000000000000   0.0000000000000000
   0.0000000000    0.0021184300    0.0058478300
   0.0000000000    0.0000004700    0.0000656700
   0.0000000000    0.0021137800   -0.0059032000
   0.0000000000   -0.0000057900   -0.0000642900
   0.0000000000    0.0021184300   -0.0058478300
   0.0000000000    0.0000004700   -0.0000656700
   0.0000000000    0.0021137800    0.0059032000
   0.0000000000   -0.0000057900    0.0000642900
   0.0000000000   -0.0351784100    0.0000000000
   0.0000000000   -0.0005844500    0.0000000000
   0.0000000000    0.0073693700    0.0000000000
   0.0000000000    0.0006584500    0.0000000000
   0.0000000000   -0.0005844500    0.0000000000
   0.0000000000   -0.0005229000    0.0000000000
   0.0000000000    0.0006584500    0.0000000000
   0.0000000000    0.0005274400    0.0000000000
  -0.0058478300    0.0021184300    0.0000000000
   0.0058478300    0.0021184300    0.0000000000
   0.0059032000    0.0021137800    0.0000000000
  -0.0059032000    0.0021137800    0.0000000000
  -0.0000656700    0.0000004700    0.0000000000
   0.0000656700    0.0000004700    0.0000000000
   0.0000642900   -0.0000057900    0.0000000000
  -0.0000642900   -0.0000057900    0.0000000000
  -0.0000118600   -0.0022392400    0.0000118600
   0.0000118600   -0.0022392400    0.0000118600
   0.0000027900    0.0014339200   -0.0000027900
  -0.0000027900    0.0014339200   -0.0000027900
  -0.0000118600   -0.0022392400   -0.0000118600
   0.0000118600   -0.0022392400   -0.0000118600
   0.0000027900    0.0014339200    0.0000027900
  -0.0000027900    0.0014339200    0.0000027900
  -0.0000110200    0.0063917500    0.0000000000
   0.0000110200    0.0063917500    0.0000000000
  -0.0000074800   -0.0028680600    0.0000000000
   0.0000074800   -0.0028680600    0.0000000000
   0.0000034400    0.0007543000    0.0000000000
  -0.0000034400    0.0007543000    0.0000000000
  -0.0000010300   -0.0007799700    0.0000000000
   0.0000010300   -0.0007799700    0.0000000000
   0.0013541800   -0.0002883100   -0.0013541800
  -0.0013541800   -0.0002883100   -0.0013541800
  -0.0013645400   -0.0002767200    0.0013645400
   0.0013645400   -0.0002767200    0.0013645400
   0.0013541800   -0.0002883100    0.0013541800
  -0.0013541800   -0.0002883100    0.0013541800
  -0.0013645400   -0.0002767200   -0.0013645400
   0.0013645400   -0.0002767200   -0.0013645400
   0.0000000000    0.0063917500    0.0000110200
   0.0000000000    0.0007543000   -0.0000034400
   0.0000000000   -0.0028680600    0.0000074800
   0.0000000000   -0.0007799700    0.0000010300
   0.0000000000    0.0063917500   -0.0000110200
   0.0000000000    0.0007543000    0.0000034400
   0.0000000000   -0.0028680600   -0.0000074800
   0.0000000000   -0.0007799700   -0.0000010300
   0.0000000000    0.0005843700    0.0000000000
   0.0000000000    0.0000655400    0.0000000000
   0.0000000000    0.0013562500    0.0000000000
   0.0000000000    0.0000784000    0.0000000000
   0.0000000000    0.0000655400    0.0000000000
   0.0000000000    0.0000029900    0.0000000000
   0.0000000000    0.0000784000    0.0000000000
   0.0000000000    0.0000067600    0.0000000000

9    
  0.0000000000000000  -0.0100000000000000   0.0000000000000000
   0.0000000000   -0.0021147500   -0.0059025000
   0.0000000000    0.0000067900   -0.0000629400
   0.0000000000   -0.0021174800    0.0058468900
   0.0000000000   -0.0000014400    0.0000649200
   0.0000000000   -0.0021147500    0.0059025000
   0.0000000000    0.0000067900    0.0000629400
   0.0000000000   -0.0021174800   -0.0058468900
   0.0000000000   -0.0000014400   -0.0000649200
   0.0000000000    0.0351740500    0.0000000000
   0.0000000000    0.0005819700    0.0000000000
   0.0000000000   -0.0073649400    0.0000000000
   0.0000000000   -0.0006558500    0.0000000000
   0.0000000000    0.0005819700    0.0000000000
   0.0000000000    0.0005224800    0.0000000000
   0.0000000000   -0.0006558500    0.0000000000
   0.0000000000   -0.0005269200    0.0000000000
   0.0059025000   -0.0021147500    0.0000000000
  -0.0059025000   -0.0021147500    0.0000000000
  -0.0058468900   -0.0021174800    0.0000000000
   0.0058468900   -0.0021174800    0.0000000000
   0.0000629400    0.0000067900    0.0000000000
  -0.0000629400    0.0000067900    0.0000000000
  -0.0000649200   -0.0000014400    0.0000000000
   0.0000649200   -0.0000014400    0.0000000000
  -0.0000111100    0.0022403900    0.0000111100
   0.0000111100    0.0022403900    0.0000111100
   0.0000016000   -0.0014350100   -0.0000016000
  -0.0000016000   -0.0014350100   -0.0000016000
  -0.0000111100    0.0022403900   -0.0000111100
   0.0000111100    0.0022403900   -0.0000111100
   0.0000016000   -0.0014350100    0.0000016000
  -0.0000016000   -0.0014350100    0.0000016000
  -0.0000108000   -0.0063920700    0.0000000000
   0.0000108000   -0.0063920700    0.0000000000