 vasp.5.2.11 25Nov10 complex
 executed on             LinuxIFC date 2011.05.26  09:58:57
 running on    8 nodes
 distr:  one band on    1 nodes,    8 groups


--------------------------------------------------------------------------------------------------------


 INCAR:
 POTCAR:    PAW_PBE Na_pv 05Jan2001
 POTCAR:    PAW_PBE Cl 17Jan2003
 POTCAR:    PAW_PBE Na_pv 05Jan2001
   VRHFIN =Na: p6s1
   LEXCH  = PE
   EATOM  =   766.0439 eV,   56.3026 Ry

   TITEL  = PAW_PBE Na_pv 05Jan2001
   LULTRA =        F    use ultrasoft PP ?
   IUNSCR =        1    unscreen: 0-lin 1-nonlin 2-no
   RPACOR =    1.800    partial core radius
   POMASS =   22.990; ZVAL   =    7.000    mass and valenz
   RCORE  =    2.200    outmost cutoff radius
   RWIGS  =    2.200; RWIGS  =    1.164    wigner-seitz radius (au A)
   ENMAX  =  259.561; ENMIN  =  194.671 eV
   ICORE  =        2    local potential
   LCOR   =        T    correct aug charges
   LPAW   =        T    paw PP
   EAUG   =  368.056
   DEXC   =    -.009
   RMAX   =    2.862    core radius for proj-oper
   RAUG   =    1.300    factor for augmentation sphere
   RDEP   =    2.259    radius for radial grids
   QCUT   =   -4.368; QGAM   =    8.735    optimization parameters

   Description
     l     E      TYP  RCUT    TYP  RCUT
     1   .000     23  2.000
     1   .500     23  2.000
     0   .000     23  2.200
     0  1.000     23  2.200
     2  -.100     23  2.000
  local pseudopotential read in
  partial core-charges read in
  atomic valenz-charges read in
  non local Contribution for L=           1  read in
    real space projection operators read in
  non local Contribution for L=           1  read in
    real space projection operators read in
  non local Contribution for L=           0  read in
    real space projection operators read in
  non local Contribution for L=           0  read in
    real space projection operators read in
    PAW grid and wavefunctions read in

   number of l-projection  operators is LMAX  =           4
   number of lm-projection operators is LMMAX =           8

 POTCAR:    PAW_PBE Cl 17Jan2003
   VRHFIN =Cl: s2p5
   LEXCH  = PE
   EATOM  =   409.7259 eV,   30.1140 Ry

   TITEL  = PAW_PBE Cl 17Jan2003
   LULTRA =        F    use ultrasoft PP ?
   IUNSCR =        1    unscreen: 0-lin 1-nonlin 2-no
   RPACOR =    1.500    partial core radius
   POMASS =   35.453; ZVAL   =    7.000    mass and valenz
   RCORE  =    1.900    outmost cutoff radius
   RWIGS  =    2.100; RWIGS  =    1.111    wigner-seitz radius (au A)
   ENMAX  =  280.000; ENMIN  =  196.854 eV
   ICORE  =        2    local potential
   LCOR   =        T    correct aug charges
   LPAW   =        T    paw PP
   EAUG   =  356.192
   DEXC   =     .000
   RMAX   =    2.846    core radius for proj-oper
   RAUG   =    1.300    factor for augmentation sphere
   RDEP   =    2.020    radius for radial grids
   QCUT   =   -4.392; QGAM   =    8.784    optimization parameters

   Description
     l     E      TYP  RCUT    TYP  RCUT
     0   .000     23  1.900
     0   .000     23  1.900
     1   .000     23  1.900
     1   .000     23  1.900
     2   .000     23  1.900
  local pseudopotential read in
  partial core-charges read in
  atomic valenz-charges read in
  non local Contribution for L=           0  read in
    real space projection operators read in
  non local Contribution for L=           0  read in
    real space projection operators read in
  non local Contribution for L=           1  read in
    real space projection operators read in
  non local Contribution for L=           1  read in
    real space projection operators read in
    PAW grid and wavefunctions read in

   number of l-projection  operators is LMAX  =           4
   number of lm-projection operators is LMMAX =           8


 -----------------------------------------------------------------------------
|                                                                             |
|  ADVICE TO THIS USER RUNNING 'VASP/VAMP'   (HEAR YOUR MASTER'S VOICE ...):  |
|                                                                             |
|      You have a (more or less) 'large supercell' and for larger cells       |
|      it might be more efficient to use real space projection opertators     |
|      So try LREAL= Auto  in the INCAR   file.                               |
|      Mind: At the moment your POTCAR file does not contain real space       |
|       projectors, and has to be modified,  BUT if you                       |
|      want to do an extremely  accurate calculation you might also keep the  |
|      reciprocal projection scheme          (i.e. LREAL=.FALSE.)             |
|                                                                             |
 -----------------------------------------------------------------------------

  PAW_PBE Na_pv 05Jan2001               :
 energy of atom  1       EATOM= -766.0439
 kinetic energy error for atom=    0.0201 (will be added to EATOM!!)
  PAW_PBE Cl 17Jan2003                  :
 energy of atom  2       EATOM= -409.7259
 kinetic energy error for atom=    0.0150 (will be added to EATOM!!)


 POSCAR: Na Cl
  positions in direct lattice
  No initial velocities read in
 exchange correlation table for  LEXCH =        8
   RHO(1)=    0.500       N(1)  =     2000
   RHO(2)=  100.500       N(2)  =     4000



--------------------------------------------------------------------------------------------------------


 ion  position               nearest neighbor table
   1  0.000  0.000  0.000-
   2  0.500  0.000  0.000-
   3  0.000  0.500  0.000-
   4  0.500  0.500  0.000-
   5  0.000  0.000  0.500-
   6  0.500  0.000  0.500-
   7  0.000  0.500  0.500-
   8  0.500  0.500  0.500-
   9  0.000  0.250  0.250-
  10  0.500  0.250  0.250-
  11  0.000  0.750  0.250-
  12  0.500  0.750  0.250-
  13  0.000  0.250  0.750-
  14  0.500  0.250  0.750-
  15  0.000  0.750  0.750-
  16  0.500  0.750  0.750-
  17  0.250  0.000  0.250-
  18  0.750  0.000  0.250-
  19  0.250  0.500  0.250-
  20  0.750  0.500  0.250-
  21  0.250  0.000  0.750-
  22  0.750  0.000  0.750-
  23  0.250  0.500  0.750-
  24  0.750  0.500  0.750-
  25  0.250  0.250  0.000-
  26  0.750  0.250  0.000-
  27  0.250  0.750  0.000-
  28  0.750  0.750  0.000-
  29  0.250  0.250  0.500-
  30  0.750  0.250  0.500-
  31  0.250  0.750  0.500-
  32  0.750  0.750  0.500-
  33  0.250  0.250  0.250-
  34  0.750  0.250  0.250-
  35  0.250  0.750  0.250-
  36  0.750  0.750  0.250-
  37  0.250  0.250  0.750-
  38  0.750  0.250  0.750-
  39  0.250  0.750  0.750-
  40  0.750  0.750  0.750-
  41  0.250  0.000  0.000-
  42  0.750  0.000  0.000-
  43  0.250  0.500  0.000-
  44  0.750  0.500  0.000-
  45  0.250  0.000  0.500-
  46  0.750  0.000  0.500-
  47  0.250  0.500  0.500-
  48  0.750  0.500  0.500-
  49  0.000  0.250  0.000-
  50  0.500  0.250  0.000-
  51  0.000  0.750  0.000-
  52  0.500  0.750  0.000-
  53  0.000  0.250  0.500-
  54  0.500  0.250  0.500-
  55  0.000  0.750  0.500-
  56  0.500  0.750  0.500-
  57  0.000  0.000  0.250-
  58  0.500  0.000  0.250-
  59  0.000  0.500  0.250-
  60  0.500  0.500  0.250-
  61  0.000  0.000  0.750-
  62  0.500  0.000  0.750-
  63  0.000  0.500  0.750-
  64  0.500  0.500  0.750-

  LATTYP: Found a simple cubic cell.
 ALAT       =    11.3806029524

  Lattice vectors:

 A1 = (  11.3806029524,   0.0000000000,   0.0000000000)
 A2 = (   0.0000000000,  11.3806029524,   0.0000000000)
 A3 = (   0.0000000000,   0.0000000000,  11.3806029524)
 Subroutine PRICEL returns following result:

  LATTYP: Found a face centered cubic cell.
 ALAT       =     5.6903014762

  Lattice vectors:

 A1 = (   2.8451507381,   2.8451507381,   0.0000000000)
 A2 = (   2.8451507381,   0.0000000000,  -2.8451507381)
 A3 = (   0.0000000000,   2.8451507381,  -2.8451507381)

  32 primitive cells build up your supercell.


Analysis of symmetry for initial positions (statically):

 Routine SETGRP: Setting up the symmetry group for a
 simple cubic supercell.


 Subroutine GETGRP returns: Found 48 space group operations
 (whereof 48 operations were pure point group operations)
 out of a pool of 48 trial point group operations.


The static configuration has the point symmetry O_h .

Analysis of symmetry for dynamics (positions and initial velocities):

 Subroutine DYNSYM returns: Found 48 space group operations
 (whereof 48 operations were pure point group operations)
 out of a pool of 48 trial space group operations
 (whereof 48 operations were pure point group operations)
 and found also    32 'primitive' translations


The dynamic configuration has the point symmetry O_h .


 KPOINTS: Automatic mesh

Automatic generation of k-mesh.

 Subroutine IBZKPT returns following result:
 ===========================================

 Found      1 irreducible k-points:

 Following reciprocal coordinates:
            Coordinates               Weight
  0.250000  0.250000  0.250000      8.000000

 Following cartesian coordinates:
            Coordinates               Weight
  0.021967  0.021967  0.021967      8.000000


 Subroutine IBZKPT_HF returns following result:
 ==============================================

 Found      8 k-points in 1st BZ
 the following      8 k-points will be used (e.g. in the exchange kernel)
 Following reciprocal coordinates:   # in IRBZ
  0.250000  0.250000  0.250000       1
 -0.250000 -0.250000 -0.250000       1
 -0.250000  0.250000  0.250000       1
  0.250000 -0.250000 -0.250000       1
 -0.250000 -0.250000  0.250000       1
  0.250000  0.250000 -0.250000       1
  0.250000 -0.250000  0.250000       1
 -0.250000  0.250000 -0.250000       1


--------------------------------------------------------------------------------------------------------




 Dimension of arrays:
   k-points           NKPTS =      1   k-points in BZ     NKDIM =      1   number of bands    NBANDS=    272
   number of dos      NEDOS =    301   number of ions     NIONS =     64
   non local maximal  LDIM  =      4   non local SUM 2l+1 LMDIM =      8
   total plane-waves  NPLWV = 262144
   max r-space proj   IRMAX =      1   max aug-charges    IRDMAX=  41096
   dimension x,y,z NGX =    64 NGY =   64 NGZ =   64
   dimension x,y,z NGXF=   128 NGYF=  128 NGZF=  128
   support grid    NGXF=   256 NGYF=  256 NGZF=  256
   ions per type =              32  32
 NGX,Y,Z   is equivalent  to a cutoff of   9.35,  9.35,  9.35 a.u.
 NGXF,Y,Z  is equivalent  to a cutoff of  18.70, 18.70, 18.70 a.u.


 I would recommend the setting:
   dimension x,y,z NGX =    64 NGY =   64 NGZ =   64
 SYSTEM =  unknown system
 POSCAR =  Na Cl

 Startparameter for this run:
   NWRITE =      2    write-flag & timer
   PREC   = accura    normal or accurate (medium, high low for compatibility)
   ISTART =      0    job   : 0-new  1-cont  2-samecut
   ICHARG =      2    charge: 1-file 2-atom 10-const
   ISPIN  =      1    spin polarized calculation?
   LNONCOLLINEAR =      F non collinear calculations
   LSORBIT =      F    spin-orbit coupling
   INIWAV =      1    electr: 0-lowe 1-rand  2-diag
   LASPH  =      F    aspherical Exc in radial PAW
   METAGGA=      F    non-selfconsistent MetaGGA calc.

 Electronic Relaxation 1
   ENCUT  =  300.0 eV  22.05 Ry    4.70 a.u.  16.07 16.07 16.07*2*pi/ulx,y,z
   ENINI  =  300.0     initial cutoff
   ENAUG  =  368.1 eV  augmentation charge cutoff
   NELM   =     60;   NELMIN=  5; NELMDL= -5     # of ELM steps
   EDIFF  = 0.1E-07   stopping-criterion for ELM
   LREAL  =      F    real-space projection
   LCOMPAT=      F    compatible to vasp.4.4
   GGA_COMPAT  = T    GGA compatible to vasp.4.4-vasp.4.6
   LMAXPAW     = -100 max onsite density
   LMAXMIX     =    2 max onsite mixed and CHGCAR
   VOSKOWN=      0    Vosko Wilk Nusair interpolation
   ROPT   =    0.00000   0.00000
 Ionic relaxation
   EDIFFG = 0.1E-06   stopping-criterion for IOM
   NSW    =      1    number of steps for IOM
   NBLOCK =      1;   KBLOCK =      1    inner block; outer block
   IBRION =      8    ionic relax: 0-MD 1-quasi-New 2-CG
   NFREE  =      0    steps in history (QN), initial steepest desc. (CG)
   ISIF   =      2    stress and relaxation
   IWAVPR =     11    prediction:  0-non 1-charg 2-wave 3-comb
   ISYM   =      2    0-nonsym 1-usesym 2-fastsym
   LCORR  =      T    Harris-Foulkes like correction to forces

   POTIM  = 0.5000    time-step for ionic-motion
   TEIN   =    0.0    initial temperature
   TEBEG  =    0.0;   TEEND  =   0.0 temperature during run
   SMASS  =  -3.00    Nose mass-parameter (am)
   estimated Nose-frequenzy (Omega)   =  0.10E-29 period in steps =****** mass=  -0.296E-26a.u.
   NPACO  =    256;   APACO  = 16.0  distance and # of slots for P.C.
   PSTRESS=    0.0 pullay stress

  Mass of Ions in am
   POMASS =  22.99 35.45
  Ionic Valenz
   ZVAL   =   7.00  7.00
  Atomic Wigner-Seitz radii
   RWIGS  =  -1.00 -1.00
  virtual crystal weights
   VCA    =   1.00  1.00
   NELECT =     448.0000    total number of electrons
   NUPDOWN=      -1.0000    fix difference up-down

 DOS related values:
   EMIN   =  10.00;   EMAX   =-10.00  energy-range for DOS
   EFERMI =   0.00
   ISMEAR =     0;   SIGMA  =   0.20  broadening in eV -4-tet -1-fermi 0-gaus

 Electronic relaxation 2 (details)
   IALGO  =     38    algorithm
   LDIAG  =      T    sub-space diagonalisation (order eigenvalues)
   LSUBROT=      T    optimize rotation matrix (better conditioning)
   TURBO    =      0    0=normal 1=particle mesh
   IRESTART =      0    0=no restart 2=restart with 2 vectors
   NREBOOT  =      0    no. of reboots
   NMIN     =      0    reboot dimension
   EREF     =   0.00    reference energy to select bands
   IMIX   =      4    mixing-type and parameters
     AMIX     =   0.40;   BMIX     =  1.00
     AMIX_MAG =   1.60;   BMIX_MAG =  1.00
     AMIN     =   0.10
     WC   =   100.;   INIMIX=   1;  MIXPRE=   1

 Intra band minimization:
   WEIMIN = 0.0010     energy-eigenvalue tresh-hold
   EBREAK =  0.93E-11  absolut break condition
   DEPER  =   0.30     relativ break condition

   TIME   =   0.40     timestep for ELM

  volume/ion in A,a.u.               =      23.03       155.42
  Fermi-wavevector in a.u.,A,eV,Ry     =   1.100700  2.080021 16.484004  1.211540
  Thomas-Fermi vector in A             =   2.237115

 Write flags
   LWAVE  =      F    write WAVECAR
   LCHARG =      F    write CHGCAR
   LVTOT  =      F    write LOCPOT, total local potential
   LVHAR  =      F    write LOCPOT, Hartree potential only
   LELF   =      F    write electronic localiz. function (ELF)
   LORBIT =      0    0 simple, 1 ext, 2 COOP (PROOUT)


 Dipole corrections
   LMONO  =      F    monopole corrections only (constant potential shift)
   LDIPOL =      F    correct potential (dipole corrections)
   IDIPOL =      0    1-x, 2-y, 3-z, 4-all directions
   EPSILON=  1.0000000 bulk dielectric constant

 Exchange correlation treatment:
   GGA     =    --    GGA type
   LEXCH   =     8    internal setting for exchange type
   VOSKOWN=      0    Vosko Wilk Nusair interpolation
   LHFCALC =     F    Hartree Fock is set to
   LHFONE  =     F    Hartree Fock one center treatment
   AEXX    =    0.0000 exact exchange contribution

 Linear response parameters
   LEPSILON=     F    determine dielectric tensor
   LRPA    =     F    only Hartree local field effects (RPA)
   LNABLA  =     F    use nabla operator in PAW spheres
   LVEL    =     F    velocity operator in full k-point grid
   LINTERFAST=   F  fast interpolation
   KINTER  =     0    interpolate to denser k-point grid
   CSHIFT  =0.1000    complex shift for real part using Kramers Kronig
   OMEGAMAX=  -1.0    maximum frequency
   RTIME   =    0.100 relaxation time in fs

 Orbital magnetization related:
   ORBITALMAG=     F  switch on orbital magnetization
   LCHIMAG   =     F  perturbation theory with respect to B field



--------------------------------------------------------------------------------------------------------


 linear response using symmetry
 charge density and potential will be updated during run
 non-spin polarized calculation
 Variant of blocked Davidson
 Davidson routine will perform the subspace rotation
 perform sub-space diagonalisation
    after iterative eigenvector-optimisation
 modified Broyden-mixing scheme, WC =      100.0
 initial mixing is a Kerker type mixing with AMIX =  0.4000 and BMIX =      1.0000
 Hartree-type preconditioning will be used
 using additional bands           48
 reciprocal scheme for non local part
 use partial core corrections
 calculate Harris-corrections to forces
   (improved forces if not selfconsistent)
 use gradient corrections
 use of overlap-Matrix (Vanderbilt PP)
 Gauss-broadening in eV      SIGMA  =   0.20


--------------------------------------------------------------------------------------------------------


  energy-cutoff  :      300.00
  volume of cell :     1473.99
      direct lattice vectors                 reciprocal lattice vectors
    11.380602952  0.000000000  0.000000000     0.087868807  0.000000000  0.000000000
     0.000000000 11.380602952  0.000000000     0.000000000  0.087868807  0.000000000
     0.000000000  0.000000000 11.380602952     0.000000000  0.000000000  0.087868807

  length of vectors
    11.380602952 11.380602952 11.380602952     0.087868807  0.087868807  0.087868807



 k-points in units of 2pi/SCALE and weight: Automatic mesh
   0.02196720  0.02196720  0.02196720       1.000

 k-points in reciprocal lattice and weights: Automatic mesh
   0.25000000  0.25000000  0.25000000       1.000

 position of ions in fractional coordinates (direct lattice)
   0.00000000  0.00000000  0.00000000
   0.50000000  0.00000000  0.00000000
   0.00000000  0.50000000  0.00000000
   0.50000000  0.50000000  0.00000000
   0.00000000  0.00000000  0.50000000
   0.50000000  0.00000000  0.50000000
   0.00000000  0.50000000  0.50000000
   0.50000000  0.50000000  0.50000000
   0.00000000  0.25000000  0.25000000
   0.50000000  0.25000000  0.25000000
   0.00000000  0.75000000  0.25000000
   0.50000000  0.75000000  0.25000000
   0.00000000  0.25000000  0.75000000
   0.50000000  0.25000000  0.75000000
   0.00000000  0.75000000  0.75000000
   0.50000000  0.75000000  0.75000000
   0.25000000  0.00000000  0.25000000
   0.75000000  0.00000000  0.25000000
   0.25000000  0.50000000  0.25000000
   0.75000000  0.50000000  0.25000000
   0.25000000  0.00000000  0.75000000
   0.75000000  0.00000000  0.75000000
   0.25000000  0.50000000  0.75000000
   0.75000000  0.50000000  0.75000000
   0.25000000  0.25000000  0.00000000
   0.75000000  0.25000000  0.00000000
   0.25000000  0.75000000  0.00000000
   0.75000000  0.75000000  0.00000000
   0.25000000  0.25000000  0.50000000
   0.75000000  0.25000000  0.50000000
   0.25000000  0.75000000  0.50000000
   0.75000000  0.75000000  0.50000000
   0.25000000  0.25000000  0.25000000
   0.75000000  0.25000000  0.25000000
   0.25000000  0.75000000  0.25000000
   0.75000000  0.75000000  0.25000000
   0.25000000  0.25000000  0.75000000
   0.75000000  0.25000000  0.75000000
   0.25000000  0.75000000  0.75000000
   0.75000000  0.75000000  0.75000000
   0.25000000  0.00000000  0.00000000
   0.75000000  0.00000000  0.00000000
   0.25000000  0.50000000  0.00000000
   0.75000000  0.50000000  0.00000000
   0.25000000  0.00000000  0.50000000
   0.75000000  0.00000000  0.50000000
   0.25000000  0.50000000  0.50000000
   0.75000000  0.50000000  0.50000000
   0.00000000  0.25000000  0.00000000
   0.50000000  0.25000000  0.00000000
   0.00000000  0.75000000  0.00000000
   0.50000000  0.75000000  0.00000000
   0.00000000  0.25000000  0.50000000
   0.50000000  0.25000000  0.50000000
   0.00000000  0.75000000  0.50000000
   0.50000000  0.75000000  0.50000000
   0.00000000  0.00000000  0.25000000
   0.50000000  0.00000000  0.25000000
   0.00000000  0.50000000  0.25000000
   0.50000000  0.50000000  0.25000000
   0.00000000  0.00000000  0.75000000
   0.50000000  0.00000000  0.75000000
   0.00000000  0.50000000  0.75000000
   0.50000000  0.50000000  0.75000000

 position of ions in cartesian coordinates  (Angst):
   0.00000000  0.00000000  0.00000000
   5.69030148  0.00000000  0.00000000
   0.00000000  5.69030148  0.00000000
   5.69030148  5.69030148  0.00000000
   0.00000000  0.00000000  5.69030148
   5.69030148  0.00000000  5.69030148
   0.00000000  5.69030148  5.69030148
   5.69030148  5.69030148  5.69030148
   0.00000000  2.84515074  2.84515074
   5.69030148  2.84515074  2.84515074
   0.00000000  8.53545221  2.84515074
   5.69030148  8.53545221  2.84515074
   0.00000000  2.84515074  8.53545221
   5.69030148  2.84515074  8.53545221
   0.00000000  8.53545221  8.53545221
   5.69030148  8.53545221  8.53545221
   2.84515074  0.00000000  2.84515074
   8.53545221  0.00000000  2.84515074
   2.84515074  5.69030148  2.84515074
   8.53545221  5.69030148  2.84515074
   2.84515074  0.00000000  8.53545221
   8.53545221  0.00000000  8.53545221
   2.84515074  5.69030148  8.53545221
   8.53545221  5.69030148  8.53545221
   2.84515074  2.84515074  0.00000000
   8.53545221  2.84515074  0.00000000
   2.84515074  8.53545221  0.00000000
   8.53545221  8.53545221  0.00000000
   2.84515074  2.84515074  5.69030148
   8.53545221  2.84515074  5.69030148
   2.84515074  8.53545221  5.69030148
   8.53545221  8.53545221  5.69030148
   2.84515074  2.84515074  2.84515074
   8.53545221  2.84515074  2.84515074
   2.84515074  8.53545221  2.84515074
   8.53545221  8.53545221  2.84515074
   2.84515074  2.84515074  8.53545221
   8.53545221  2.84515074  8.53545221
   2.84515074  8.53545221  8.53545221
   8.53545221  8.53545221  8.53545221
   2.84515074  0.00000000  0.00000000
   8.53545221  0.00000000  0.00000000
   2.84515074  5.69030148  0.00000000
   8.53545221  5.69030148  0.00000000
   2.84515074  0.00000000  5.69030148
   8.53545221  0.00000000  5.69030148
   2.84515074  5.69030148  5.69030148
   8.53545221  5.69030148  5.69030148
   0.00000000  2.84515074  0.00000000
   5.69030148  2.84515074  0.00000000
   0.00000000  8.53545221  0.00000000
   5.69030148  8.53545221  0.00000000
   0.00000000  2.84515074  5.69030148
   5.69030148  2.84515074  5.69030148
   0.00000000  8.53545221  5.69030148
   5.69030148  8.53545221  5.69030148
   0.00000000  0.00000000  2.84515074
   5.69030148  0.00000000  2.84515074
   0.00000000  5.69030148  2.84515074
   5.69030148  5.69030148  2.84515074
   0.00000000  0.00000000  8.53545221
   5.69030148  0.00000000  8.53545221
   0.00000000  5.69030148  8.53545221
   5.69030148  5.69030148  8.53545221



--------------------------------------------------------------------------------------------------------


 k-point  1 :  0.25000.25000.2500  plane waves:   17422

 maximum and minimum number of plane-waves per node :     17422    17422

 maximum number of plane-waves:     17422
 maximum index in each direction:
   IXMAX=   15   IYMAX=   15   IZMAX=   15
   IXMIN=  -16   IYMIN=  -16   IZMIN=  -16

 NGX is ok and might be reduce to  64
 NGY is ok and might be reduce to  64
 NGZ is ok and might be reduce to  64

 serial   3D FFT for wavefunctions
 parallel 3D FFT for charge:
    minimum data exchange during FFTs selected (reduces bandwidth)


 total amount of memory used by VASP on root node   124982. kBytes
========================================================================

   base      :      30000. kBytes
   nonl-proj :      20072. kBytes
   fftplans  :      39562. kBytes
   grid      :      25395. kBytes
   one-center:        196. kBytes
   wavefun   :       9757. kBytes

 Broyden mixing: mesh for mixing (old mesh)
   NGX = 33   NGY = 33   NGZ = 33
  (NGX  =128   NGY  =128   NGZ  =128)
  gives a total of  35937 points

 initial charge density was supplied:
 charge density of overlapping atoms calculated
 number of electron     448.0000000 magnetization
 keeping initial charge density in first step


--------------------------------------------------------------------------------------------------------


 Maximum index for augmentation-charges         4993 (set IRDMAX)


--------------------------------------------------------------------------------------------------------


 First call to EWALD:  gamma=   0.156
 Maximum number of real-space cells 3x 3x 3
 Maximum number of reciprocal cells 3x 3x 3

    FEWALD:  cpu time    0.02: real time    0.02


----------------------------------------- Iteration    1(   1)  ---------------------------------------


    POTLOK:  cpu time    0.72: real time    0.73
    SETDIJ:  cpu time    0.48: real time    0.47
     EDDAV:  cpu time    7.52: real time    7.56
       DOS:  cpu time    0.00: real time    0.00
    --------------------------------------------
      LOOP:  cpu time    8.72: real time    8.78

 eigenvalue-minimisations  :   600
 total energy-change (2. order) : 0.4081242E+04  (-0.1636403E+05)
 number of electron     448.0000000 magnetization
 augmentation part      448.0000000 magnetization

 Free energy of the ion-electron system (eV)
  ---------------------------------------------------
  alpha Z        PSCENC =       668.86209959
  Ewald energy   TEWEN  =    -22516.54734859
  -1/2 Hartree   DENC   =     -9185.63326179
  -exchange  EXHF       =         0.00000000
  -V(xc)+E(xc)   XCENC  =      1431.91611847
  PAW double counting   =     21065.31730818   -23903.28520446
  entropy T*S    EENTRO =        -0.21481369
  eigenvalues    EBANDS =     -1102.68485878
  atomic energy  EATOM  =     37623.51160799
  ---------------------------------------------------
  free energy    TOTEN  =      4081.24164692 eV

  energy without entropy =     4081.45646060  energy(sigma->0) =     4081.34905376


--------------------------------------------------------------------------------------------------------


 E-fermi :  15.5570     XC(G=0):  -8.3739     alpha+bet : -7.9814


 k-point   1 :       0.2500    0.2500    0.2500
  band No.  band energies     occupation
      1     -16.7007      2.00000
      2     -16.5045      2.00000
      3     -16.3696      2.00000
      4     -16.1517      2.00000
      5     -16.1051      2.00000
      6     -16.0673      2.00000
      7     -15.9541      2.00000
      8     -15.8718      2.00000
      9     -15.7586      2.00000
     10     -15.6526      2.00000
     11     -15.5767      2.00000
     12     -15.5308      2.00000
     13     -15.4756      2.00000
     14     -15.4204      2.00000
     15     -15.3368      2.00000
     16     -15.2668      2.00000
     17     -15.1825      2.00000
     18     -15.0934      2.00000
     19     -15.0404      2.00000
     20     -14.9916      2.00000
     21     -14.9353      2.00000
     22     -14.8033      2.00000
     23     -14.7883      2.00000
     24     -14.7139      2.00000
     25     -14.6603      2.00000
     26     -14.5919      2.00000
     27     -14.4940      2.00000
     28     -14.4725      2.00000
     29     -14.4045      2.00000
     30     -14.3019      2.00000
     31     -14.2793      2.00000
     32     -14.2449      2.00000
     33     -14.1731      2.00000
     34     -14.1575      2.00000
     35     -14.0711      2.00000
     36     -13.9730      2.00000
     37     -13.9130      2.00000
     38     -13.8574      2.00000
     39     -13.8456      2.00000
     40     -13.7534      2.00000
     41     -13.7080      2.00000
     42     -13.6656      2.00000
     43     -13.6107      2.00000
     44     -13.5174      2.00000
     45     -13.4622      2.00000
     46     -13.4289      2.00000
     47     -13.3279      2.00000
     48     -13.2005      2.00000
     49     -13.1650      2.00000
     50     -13.1266      2.00000
     51     -13.0027      2.00000
     52     -12.9743      2.00000
     53     -12.8300      2.00000
     54     -12.7981      2.00000
     55     -12.7345      2.00000
     56     -12.6910      2.00000
     57     -12.6334      2.00000
     58     -12.5162      2.00000
     59     -12.4557      2.00000
     60     -12.3817      2.00000
     61     -12.3075      2.00000
     62     -12.2573      2.00000
     63     -12.2132      2.00000
     64     -12.1142      2.00000
     65     -12.0821      2.00000
     66     -11.9927      2.00000
     67     -11.9268      2.00000
     68     -11.8623      2.00000
     69     -11.7753      2.00000
     70     -11.6822      2.00000
     71     -11.6130      2.00000
     72     -11.5590      2.00000
     73     -11.4705      2.00000
     74     -11.4409      2.00000
     75     -11.3356      2.00000
     76     -11.2602      2.00000
     77     -11.1912      2.00000
     78     -11.1252      2.00000
     79     -11.0050      2.00000
     80     -10.9257      2.00000
     81     -10.8506      2.00000
     82     -10.7352      2.00000
     83     -10.6075      2.00000
     84     -10.5654      2.00000
     85     -10.4997      2.00000
     86     -10.4409      2.00000
     87     -10.3057      2.00000
     88     -10.1937      2.00000
     89     -10.1106      2.00000
     90     -10.0328      2.00000
     91      -9.9831      2.00000
     92      -9.8562      2.00000
     93      -9.6495      2.00000
     94      -9.5215      2.00000
     95      -9.3795      2.00000
     96      -8.9899      2.00000
     97      -6.2606      2.00000
     98      -5.5842      2.00000
     99      -5.3795      2.00000
    100      -5.2771      2.00000
    101      -5.0882      2.00000
    102      -4.8931      2.00000
    103      -4.6782      2.00000
    104      -4.5862      2.00000
    105      -4.4248      2.00000
    106      -4.1718      2.00000
    107      -3.9553      2.00000
    108      -3.7278      2.00000
    109      -3.5809      2.00000
    110      -3.3308      2.00000
    111      -3.0894      2.00000
    112      -2.8737      2.00000
    113      -2.7953      2.00000
    114      -2.5704      2.00000
    115      -2.2965      2.00000
    116      -2.1785      2.00000
    117      -1.8869      2.00000
    118      -1.6742      2.00000
    119      -1.5563      2.00000
    120      -1.4680      2.00000
    121      -1.2370      2.00000
    122      -1.1048      2.00000
    123      -0.6679      2.00000
    124      -0.3308      2.00000
    125       0.0629      2.00000
    126       0.3348      2.00000
    127       0.5186      2.00000
    128       1.0355      2.00000
    129       1.7970      2.00000
    130       1.8808      2.00000
    131       2.1686      2.00000
    132       2.2656      2.00000
    133       2.3761      2.00000
    134       2.4536      2.00000
    135       2.6556      2.00000
    136       2.9324      2.00000
    137       3.0333      2.00000
    138       3.1052      2.00000
    139       3.2049      2.00000
    140       3.3269      2.00000
    141       3.4042      2.00000
    142       3.6006      2.00000
    143       3.7520      2.00000
    144       3.8482      2.00000
    145       3.9446      2.00000
    146       4.0649      2.00000
    147       4.1371      2.00000
    148       4.3303      2.00000
    149       4.4522      2.00000
    150       4.4977      2.00000
    151       4.5955      2.00000
    152       4.7167      2.00000
    153       4.8221      2.00000
    154       4.9811      2.00000
    155       5.0722      2.00000
    156       5.2701      2.00000
    157       5.3475      2.00000
    158       5.5037      2.00000
    159       5.5529      2.00000
    160       5.6560      2.00000
    161       5.8329      2.00000
    162       5.9443      2.00000
    163       5.9860      2.00000
    164       6.1417      2.00000
    165       6.3322      2.00000
    166       6.4948      2.00000
    167       6.6332      2.00000
    168       6.7923      2.00000
    169       6.8675      2.00000
    170       7.0983      2.00000
    171       7.2402      2.00000
    172       7.3441      2.00000
    173       7.5228      2.00000
    174       7.5849      2.00000
    175       7.7961      2.00000
    176       7.8514      2.00000
    177       7.9697      2.00000
    178       8.1784      2.00000
    179       8.2571      2.00000
    180       8.4536      2.00000
    181       8.6216      2.00000
    182       8.6720      2.00000
    183       8.8266      2.00000
    184       9.0752      2.00000
    185       9.1076      2.00000
    186       9.4142      2.00000
    187       9.5067      2.00000
    188       9.6879      2.00000
    189       9.8578      2.00000
    190      10.0925      2.00000
    191      10.1629      2.00000
    192      10.4242      2.00000
    193      10.5274      2.00000
    194      10.6919      2.00000
    195      10.7852      2.00000
    196      11.0427      2.00000
    197      11.1891      2.00000
    198      11.2766      2.00000
    199      11.4072      2.00000
    200      11.5383      2.00000
    201      11.7765      2.00000
    202      11.8412      2.00000
    203      12.0797      2.00000
    204      12.2444      2.00000
    205      12.3604      2.00000
    206      12.4930      2.00000
    207      12.6947      2.00000
    208      12.8681      2.00000
    209      12.9883      2.00000
    210      13.2990      2.00000
    211      13.4525      2.00000
    212      13.6381      2.00000
    213      13.7892      2.00000
    214      13.9291      2.00000
    215      14.0651      2.00000
    216      14.2681      2.00000
    217      14.3038      2.00000
    218      14.4557      2.00000
    219      14.6827      2.00000
    220      14.7614      2.00000
    221      15.0227      1.99984
    222      15.1235      1.99783
    223      15.3247      1.89951
    224      15.4434      1.57809
    225      15.6564      0.48201
    226      15.8440      0.04246
    227      16.0731      0.00026
    228      16.3319      0.00000
    229      16.4994      0.00000
    230      16.6427      0.00000
    231      16.7897      0.00000
    232      17.0492      0.00000
    233      17.1896      0.00000
    234      17.4048      0.00000
    235      17.5790      0.00000
    236      17.7011      0.00000
    237      17.8735      0.00000
    238      18.1331      0.00000
    239      18.4041      0.00000
    240      18.7329      0.00000
    241      18.7865      0.00000
    242      18.9132      0.00000
    243      19.2558      0.00000
    244      19.6335      0.00000
    245      19.8064      0.00000
    246      19.9343      0.00000
    247      20.1430      0.00000
    248      20.6223      0.00000
    249      20.9625      0.00000
    250      21.4010      0.00000
    251      21.6042      0.00000
    252      22.1982      0.00000
    253      22.4678      0.00000
    254      22.7532      0.00000
    255      23.5895      0.00000
    256      24.0348      0.00000
    257      24.2810      0.00000
    258      24.8153      0.00000
    259      25.4174      0.00000
    260      25.7274      0.00000
    261      26.1741      0.00000
    262      26.5720      0.00000
    263      27.1658      0.00000
    264      28.2246      0.00000
    265      29.1519      0.00000
    266      30.1385      0.00000
    267      30.3920      0.00000
    268      31.2776      0.00000
    269      32.3249      0.00000
    270      33.6885      0.00000
    271      34.3446      0.00000
    272      35.4904      0.00000


----------------------------------------- Iteration    1(   2)  ---------------------------------------


     EDDAV:  cpu time    7.80: real time    7.84
       DOS:  cpu time    0.01: real time    0.00
    --------------------------------------------
      LOOP:  cpu time    7.82: real time    7.85

 eigenvalue-minimisations  :   624
 total energy-change (2. order) :-0.3801645E+04  (-0.3667033E+04)
 number of electron     448.0000000 magnetization
 augmentation part      448.0000000 magnetization

 Free energy of the ion-electron system (eV)
  ---------------------------------------------------
  alpha Z        PSCENC =       668.86209959
  Ewald energy   TEWEN  =    -22516.54734859
  -1/2 Hartree   DENC   =     -9185.63326179
  -exchange  EXHF       =         0.00000000
  -V(xc)+E(xc)   XCENC  =      1431.91611847
  PAW double counting   =     21065.31730818   -23903.28520446
  entropy T*S    EENTRO =         0.00000000
  eigenvalues    EBANDS =     -4904.54508908
  atomic energy  EATOM  =     37623.51160799
  ---------------------------------------------------
  free energy    TOTEN  =       279.59623030 eV

  energy without entropy =      279.59623030  energy(sigma->0) =      279.59623030


--------------------------------------------------------------------------------------------------------


 E-fermi :   3.2610     XC(G=0):  -8.3739     alpha+bet : -7.9814


 k-point   1 :       0.2500    0.2500    0.2500
  band No.  band energies     occupation
      1     -20.7707      2.00000
      2     -20.7616      2.00000
      3     -20.7601      2.00000
      4     -20.7532      2.00000
      5     -20.7504      2.00000
      6     -20.7416      2.00000
      7     -20.7394      2.00000
      8     -20.7309      2.00000
      9     -20.7276      2.00000
     10     -20.7235      2.00000
     11     -20.7200      2.00000
     12     -20.7181      2.00000
     13     -20.7151      2.00000
     14     -20.7088      2.00000
     15     -20.7051      2.00000
     16     -20.7015      2.00000
     17     -20.6949      2.00000
     18     -20.6929      2.00000
     19     -20.6864      2.00000
     20     -20.6814      2.00000
     21     -20.6777      2.00000
     22     -20.6750      2.00000
     23     -20.6684      2.00000
     24     -20.6628      2.00000
     25     -20.6569      2.00000
     26     -20.6530      2.00000
     27     -20.6507      2.00000
     28     -20.6432      2.00000
     29     -20.6347      2.00000
     30     -20.6298      2.00000
     31     -20.6263      2.00000
     32     -20.6243      2.00000
     33     -20.6171      2.00000
     34     -20.6131      2.00000
     35     -20.6069      2.00000
     36     -20.5970      2.00000
     37     -20.5932      2.00000
     38     -20.5864      2.00000
     39     -20.5809      2.00000
     40     -20.5738      2.00000
     41     -20.5694      2.00000
     42     -20.5655      2.00000
     43     -20.5526      2.00000
     44     -20.5471      2.00000
     45     -20.5403      2.00000
     46     -20.5293      2.00000
     47     -20.5235      2.00000
     48     -20.5139      2.00000
     49     -20.5067      2.00000
     50     -20.4976      2.00000
     51     -20.4853      2.00000
     52     -20.4827      2.00000
     53     -20.4748      2.00000
     54     -20.4683      2.00000
     55     -20.4574      2.00000
     56     -20.4474      2.00000
     57     -20.4299      2.00000
     58     -20.4209      2.00000
     59     -20.4075      2.00000
     60     -20.3967      2.00000
     61     -20.3915      2.00000
     62     -20.3704      2.00000
     63     -20.3618      2.00000
     64     -20.3488      2.00000
     65     -20.3310      2.00000
     66     -20.3192      2.00000
     67     -20.3023      2.00000
     68     -20.2925      2.00000
     69     -20.2736      2.00000
     70     -20.2663      2.00000
     71     -20.2514      2.00000
     72     -20.2333      2.00000
     73     -20.2154      2.00000
     74     -20.2024      2.00000
     75     -20.1860      2.00000
     76     -20.1789      2.00000
     77     -20.1610      2.00000
     78     -20.1501      2.00000
     79     -20.1181      2.00000
     80     -20.1070      2.00000
     81     -20.0712      2.00000
     82     -20.0555      2.00000
     83     -20.0414      2.00000
     84     -20.0215      2.00000
     85     -20.0072      2.00000
     86     -19.9569      2.00000
     87     -19.9443      2.00000
     88     -19.9299      2.00000
     89     -19.8663      2.00000
     90     -19.8322      2.00000
     91     -19.8080      2.00000
     92     -19.7791      2.00000
     93     -19.7585      2.00000
     94     -19.7129      2.00000
     95     -19.6653      2.00000
     96     -19.6445      2.00000
     97     -13.4390      2.00000
     98     -13.3078      2.00000
     99     -13.2149      2.00000
    100     -13.1765      2.00000
    101     -13.1636      2.00000
    102     -13.1382      2.00000
    103     -13.0933      2.00000
    104     -13.0369      2.00000
    105     -13.0054      2.00000
    106     -12.9550      2.00000
    107     -12.9315      2.00000
    108     -12.8614      2.00000
    109     -12.8013      2.00000
    110     -12.7657      2.00000
    111     -12.7314      2.00000
    112     -12.6891      2.00000
    113     -12.6411      2.00000
    114     -12.5839      2.00000
    115     -12.5641      2.00000
    116     -12.4725      2.00000
    117     -12.4008      2.00000
    118     -12.3288      2.00000
    119     -12.3128      2.00000
    120     -12.1686      2.00000
    121     -12.0390      2.00000
    122     -11.9876      2.00000
    123     -11.9455      2.00000
    124     -11.8039      2.00000
    125     -11.7612      2.00000
    126     -11.6083      2.00000
    127     -11.4793      2.00000
    128     -11.1995      2.00000
    129      -2.4792      2.00000
    130      -2.4430      2.00000
    131      -2.3974      2.00000
    132      -2.3246      2.00000
    133      -2.3153      2.00000
    134      -2.2713      2.00000
    135      -2.2464      2.00000
    136      -2.2335      2.00000
    137      -2.1877      2.00000
    138      -2.1600      2.00000
    139      -2.1206      2.00000
    140      -2.0995      2.00000
    141      -2.0664      2.00000
    142      -2.0237      2.00000
    143      -1.9922      2.00000
    144      -1.9610      2.00000
    145      -1.9484      2.00000
    146      -1.9204      2.00000
    147      -1.8946      2.00000
    148      -1.8633      2.00000
    149      -1.8397      2.00000
    150      -1.7892      2.00000
    151      -1.7497      2.00000
    152      -1.7220      2.00000
    153      -1.6903      2.00000
    154      -1.6844      2.00000
    155      -1.6564      2.00000
    156      -1.6243      2.00000
    157      -1.6025      2.00000
    158      -1.5740      2.00000
    159      -1.5287      2.00000
    160      -1.4898      2.00000
    161      -1.4691      2.00000
    162      -1.4508      2.00000
    163      -1.4225      2.00000
    164      -1.3897      2.00000
    165      -1.3712      2.00000
    166      -1.3294      2.00000
    167      -1.3042      2.00000
    168      -1.2800      2.00000
    169      -1.2448      2.00000
    170      -1.2318      2.00000
    171      -1.2127      2.00000
    172      -1.1960      2.00000
    173      -1.1632      2.00000
    174      -1.1305      2.00000
    175      -1.1140      2.00000
    176      -1.0616      2.00000
    177      -1.0527      2.00000
    178      -1.0273      2.00000
    179      -1.0080      2.00000
    180      -0.9841      2.00000
    181      -0.9691      2.00000
    182      -0.9333      2.00000
    183      -0.8665      2.00000
    184      -0.8489      2.00000
    185      -0.8234      2.00000
    186      -0.8145      2.00000
    187      -0.7973      2.00000
    188      -0.7534      2.00000
    189      -0.7164      2.00000
    190      -0.6835      2.00000
    191      -0.6513      2.00000
    192      -0.6198      2.00000
    193      -0.5805      2.00000
    194      -0.5723      2.00000
    195      -0.5336      2.00000
    196      -0.4987      2.00000
    197      -0.4876      2.00000
    198      -0.4219      2.00000
    199      -0.3675      2.00000
    200      -0.3459      2.00000
    201      -0.3318      2.00000
    202      -0.2828      2.00000
    203      -0.2678      2.00000
    204      -0.2028      2.00000
    205      -0.1732      2.00000
    206      -0.1016      2.00000
    207      -0.0710      2.00000
    208      -0.0094      2.00000
    209       0.0185      2.00000
    210       0.0477      2.00000
    211       0.1423      2.00000
    212       0.1979      2.00000
    213       0.2286      2.00000
    214       0.3401      2.00000
    215       0.4572      2.00000
    216       0.4966      2.00000
    217       0.5465      2.00000
    218       0.7586      2.00000
    219       0.8495      2.00000
    220       0.9256      2.00000
    221       0.9939      2.00000
    222       1.2898      2.00000
    223       1.8007      2.00000
    224       2.3371      2.00000
    225       6.5860      0.00000
    226       7.2529      0.00000
    227       7.4694      0.00000
    228       7.6283      0.00000
    229       7.7959      0.00000
    230       7.8477      0.00000
    231       7.9263      0.00000
    232       8.0554      0.00000
    233       8.1807      0.00000
    234       8.3521      0.00000
    235       8.4079      0.00000
    236       8.4964      0.00000
    237       8.5710      0.00000
    238       8.6115      0.00000
    239       8.8117      0.00000
    240       8.9300      0.00000
    241       9.0183      0.00000
    242       9.1751      0.00000
    243       9.2691      0.00000
    244       9.4608      0.00000
    245       9.5030      0.00000
    246       9.6041      0.00000
    247       9.7431      0.00000
    248       9.9000      0.00000
    249      10.2237      0.00000
    250      10.3573      0.00000
    251      10.4589      0.00000
    252      10.6386      0.00000
    253      10.7523      0.00000
    254      10.8980      0.00000
    255      11.0158      0.00000
    256      11.3095      0.00000
    257      11.4340      0.00000
    258      11.6731      0.00000
    259      11.8021      0.00000
    260      11.9786      0.00000
    261      12.0456      0.00000
    262      12.3652      0.00000
    263      12.5071      0.00000
    264      13.0292      0.00000
    265      13.1554      0.00000
    266      13.3415      0.00000
    267      13.6568      0.00000
    268      13.8204      0.00000
    269      14.1541      0.00000
    270      14.8750      0.00000
    271      15.1190      0.00000
    272      15.4813      0.00000


----------------------------------------- Iteration    1(   3)  ---------------------------------------


     EDDAV:  cpu time    7.79: real time    7.83
       DOS:  cpu time    0.00: real time    0.00
    --------------------------------------------
      LOOP:  cpu time    7.79: real time    7.83

 eigenvalue-minimisations  :   624
 total energy-change (2. order) :-0.4823483E+03  (-0.4794872E+03)
 number of electron     448.0000000 magnetization
 augmentation part      448.0000000 magnetization

 Free energy of the ion-electron system (eV)
  ---------------------------------------------------
  alpha Z        PSCENC =       668.86209959
  Ewald energy   TEWEN  =    -22516.54734859
  -1/2 Hartree   DENC   =     -9185.63326179
  -exchange  EXHF       =         0.00000000
  -V(xc)+E(xc)   XCENC  =      1431.91611847
  PAW double counting   =     21065.31730818   -23903.28520446
  entropy T*S    EENTRO =         0.00000000
  eigenvalues    EBANDS =     -5386.89337122
  atomic energy  EATOM  =     37623.51160799
  ---------------------------------------------------
  free energy    TOTEN  =      -202.75205184 eV

  energy without entropy =     -202.75205184  energy(sigma->0) =     -202.75205184


--------------------------------------------------------------------------------------------------------


 E-fermi :  -0.8336     XC(G=0):  -8.3739     alpha+bet : -7.9814


 k-point   1 :       0.2500    0.2500    0.2500
  band No.  band energies     occupation
      1     -20.9410      2.00000
      2     -20.9399      2.00000
      3     -20.9397      2.00000
      4     -20.9382      2.00000
      5     -20.9362      2.00000
      6     -20.9353      2.00000
      7     -20.9351      2.00000
      8     -20.9348      2.00000
      9     -20.9343      2.00000
     10     -20.9338      2.00000
     11     -20.9335      2.00000
     12     -20.9333      2.00000
     13     -20.9326      2.00000
     14     -20.9320      2.00000
     15     -20.9316      2.00000
     16     -20.9313      2.00000
     17     -20.9311      2.00000
     18     -20.9307      2.00000
     19     -20.9304      2.00000
     20     -20.9302      2.00000
     21     -20.9294      2.00000
     22     -20.9290      2.00000
     23     -20.9286      2.00000
     24     -20.9280      2.00000
     25     -20.9275      2.00000
     26     -20.9269      2.00000
     27     -20.9264      2.00000
     28     -20.9257      2.00000
     29     -20.9249      2.00000
     30     -20.9244      2.00000
     31     -20.9240      2.00000
     32     -20.9238      2.00000
     33     -20.9234      2.00000
     34     -20.9230      2.00000
     35     -20.9228      2.00000
     36     -20.9225      2.00000
     37     -20.9221      2.00000
     38     -20.9218      2.00000
     39     -20.9215      2.00000
     40     -20.9211      2.00000
     41     -20.9208      2.00000
     42     -20.9206      2.00000
     43     -20.9203      2.00000
     44     -20.9201      2.00000
     45     -20.9197      2.00000
     46     -20.9195      2.00000
     47     -20.9194      2.00000
     48     -20.9190      2.00000
     49     -20.9188      2.00000
     50     -20.9184      2.00000
     51     -20.9182      2.00000
     52     -20.9179      2.00000
     53     -20.9176      2.00000
     54     -20.9173      2.00000
     55     -20.9168      2.00000
     56     -20.9166      2.00000
     57     -20.9163      2.00000
     58     -20.9161      2.00000
     59     -20.9158      2.00000
     60     -20.9157      2.00000
     61     -20.9152      2.00000
     62     -20.9149      2.00000
     63     -20.9146      2.00000
     64     -20.9143      2.00000
     65     -20.9138      2.00000
     66     -20.9131      2.00000
     67     -20.9128      2.00000
     68     -20.9124      2.00000
     69     -20.9118      2.00000
     70     -20.9117      2.00000
     71     -20.9112      2.00000
     72     -20.9110      2.00000
     73     -20.9103      2.00000
     74     -20.9099      2.00000
     75     -20.9096      2.00000
     76     -20.9094      2.00000
     77     -20.9082      2.00000
     78     -20.9080      2.00000
     79     -20.9069      2.00000
     80     -20.9060      2.00000
     81     -20.9051      2.00000
     82     -20.9042      2.00000
     83     -20.9037      2.00000
     84     -20.9029      2.00000
     85     -20.9015      2.00000
     86     -20.9000      2.00000
     87     -20.8991      2.00000
     88     -20.8967      2.00000
     89     -20.8955      2.00000
     90     -20.8931      2.00000
     91     -20.8905      2.00000
     92     -20.8899      2.00000
     93     -20.8874      2.00000
     94     -20.8858      2.00000
     95     -20.8837      2.00000
     96     -20.8798      2.00000
     97     -14.4325      2.00000
     98     -14.3367      2.00000
     99     -14.3340      2.00000
    100     -14.3168      2.00000
    101     -14.2759      2.00000
    102     -14.2626      2.00000
    103     -14.2558      2.00000
    104     -14.2314      2.00000
    105     -14.2279      2.00000
    106     -14.2220      2.00000
    107     -14.2097      2.00000
    108     -14.2044      2.00000
    109     -14.1947      2.00000
    110     -14.1895      2.00000
    111     -14.1854      2.00000
    112     -14.1804      2.00000
    113     -14.1788      2.00000
    114     -14.1715      2.00000
    115     -14.1689      2.00000
    116     -14.1655      2.00000
    117     -14.1592      2.00000
    118     -14.1556      2.00000
    119     -14.1496      2.00000
    120     -14.1440      2.00000
    121     -14.1356      2.00000
    122     -14.1314      2.00000
    123     -14.1235      2.00000
    124     -14.1182      2.00000
    125     -14.1157      2.00000
    126     -14.1031      2.00000
    127     -14.0932      2.00000
    128     -14.0781      2.00000
    129      -3.2555      2.00000
    130      -3.2515      2.00000
    131      -3.2335      2.00000
    132      -3.1650      2.00000
    133      -3.0729      2.00000
    134      -3.0637      2.00000
    135      -3.0570      2.00000
    136      -3.0403      2.00000
    137      -3.0385      2.00000
    138      -3.0309      2.00000
    139      -3.0226      2.00000
    140      -3.0165      2.00000
    141      -3.0111      2.00000
    142      -3.0040      2.00000
    143      -3.0006      2.00000
    144      -2.9840      2.00000
    145      -2.9384      2.00000
    146      -2.9292      2.00000
    147      -2.9233      2.00000
    148      -2.9171      2.00000
    149      -2.9103      2.00000
    150      -2.9033      2.00000
    151      -2.8973      2.00000
    152      -2.8867      2.00000
    153      -2.8751      2.00000
    154      -2.8445      2.00000
    155      -2.8367      2.00000
    156      -2.8196      2.00000
    157      -2.5849      2.00000
    158      -2.5754      2.00000
    159      -2.5709      2.00000
    160      -2.5615      2.00000
    161      -2.5555      2.00000
    162      -2.5497      2.00000
    163      -2.5283      2.00000
    164      -2.5156      2.00000
    165      -2.5098      2.00000
    166      -2.5020      2.00000
    167      -2.4973      2.00000
    168      -2.4864      2.00000
    169      -2.3506      2.00000
    170      -2.3444      2.00000
    171      -2.3376      2.00000
    172      -2.3216      2.00000
    173      -2.3134      2.00000
    174      -2.3040      2.00000
    175      -2.2954      2.00000
    176      -2.2905      2.00000
    177      -2.2845      2.00000
    178      -2.2406      2.00000
    179      -2.2351      2.00000
    180      -2.2276      2.00000
    181      -2.2232      2.00000
    182      -2.2142      2.00000
    183      -2.2061      2.00000
    184      -2.2010      2.00000
    185      -2.1955      2.00000
    186      -2.1842      2.00000
    187      -2.1515      2.00000
    188      -2.1356      2.00000
    189      -2.1318      2.00000
    190      -2.1201      2.00000
    191      -2.1139      2.00000
    192      -2.1023      2.00000
    193      -2.0902      2.00000
    194      -2.0842      2.00000
    195      -2.0765      2.00000
    196      -2.0742      2.00000
    197      -2.0695      2.00000
    198      -2.0670      2.00000
    199      -2.0623      2.00000
    200      -2.0576      2.00000
    201      -2.0523      2.00000
    202      -2.0477      2.00000
    203      -2.0438      2.00000
    204      -2.0379      2.00000
    205      -2.0337      2.00000
    206      -2.0257      2.00000
    207      -2.0182      2.00000
    208      -2.0110      2.00000
    209      -2.0034      2.00000
    210      -1.9936      2.00000
    211      -1.9807      2.00000
    212      -1.9323      2.00000
    213      -1.9242      2.00000
    214      -1.9161      2.00000
    215      -1.9075      2.00000
    216      -1.9043      2.00000
    217      -1.9014      2.00000
    218      -1.8919      2.00000
    219      -1.8882      2.00000
    220      -1.8785      2.00000
    221      -1.8674      2.00000
    222      -1.8410      2.00000
    223      -1.7716      2.00000
    224      -1.7595      2.00000
    225       4.4385      0.00000
    226       5.3747      0.00000
    227       5.4682      0.00000
    228       5.5078      0.00000
    229       5.9969      0.00000
    230       6.0431      0.00000
    231       6.0898      0.00000
    232       6.2141      0.00000
    233       6.5112      0.00000
    234       6.5406      0.00000
    235       6.6641      0.00000
    236       6.7139      0.00000
    237       6.7834      0.00000
    238       6.8676      0.00000
    239       6.9462      0.00000
    240       7.0022      0.00000
    241       7.0360      0.00000
    242       7.1214      0.00000
    243       7.1622      0.00000
    244       7.1885      0.00000
    245       7.2539      0.00000
    246       7.3611      0.00000
    247       7.4277      0.00000
    248       7.5825      0.00000
    249       7.6354      0.00000
    250       7.7634      0.00000
    251       7.7973      0.00000
    252       7.9234      0.00000
    253       8.0096      0.00000
    254       8.0864      0.00000
    255       8.1409      0.00000
    256       8.2704      0.00000
    257       8.3525      0.00000
    258       8.4732      0.00000
    259       8.5591      0.00000
    260       8.6062      0.00000
    261       8.7656      0.00000
    262       8.8079      0.00000
    263       8.8513      0.00000
    264       8.9302      0.00000
    265       9.0166      0.00000
    266       9.1420      0.00000
    267       9.1738      0.00000
    268       9.2821      0.00000
    269       9.3980      0.00000
    270       9.5706      0.00000
    271       9.6443      0.00000
    272       9.7798      0.00000


----------------------------------------- Iteration    1(   4)  ---------------------------------------


     EDDAV:  cpu time    7.86: real time    7.91
       DOS:  cpu time    0.00: real time    0.00
    --------------------------------------------
      LOOP:  cpu time    7.87: real time    7.92

 eigenvalue-minimisations  :   632
 total energy-change (2. order) :-0.1963608E+02  (-0.1954831E+02)
 number of electron     448.0000000 magnetization
 augmentation part      448.0000000 magnetization

 Free energy of the ion-electron system (eV)
  ---------------------------------------------------
  alpha Z        PSCENC =       668.86209959
  Ewald energy   TEWEN  =    -22516.54734859
  -1/2 Hartree   DENC   =     -9185.63326179
  -exchange  EXHF       =         0.00000000
  -V(xc)+E(xc)   XCENC  =      1431.91611847
  PAW double counting   =     21065.31730818   -23903.28520446
  entropy T*S    EENTRO =         0.00000000
  eigenvalues    EBANDS =     -5406.52945119
  atomic energy  EATOM  =     37623.51160799
  ---------------------------------------------------
  free energy    TOTEN  =      -222.38813181 eV

  energy without entropy =     -222.38813181  energy(sigma->0) =     -222.38813181


--------------------------------------------------------------------------------------------------------


 E-fermi :  -0.8382     XC(G=0):  -8.3739     alpha+bet : -7.9814


 k-point   1 :       0.2500    0.2500    0.2500
  band No.  band energies     occupation
      1     -20.9472      2.00000
      2     -20.9472      2.00000
      3     -20.9470      2.00000
      4     -20.9454      2.00000
      5     -20.9413      2.00000
      6     -20.9412      2.00000
      7     -20.9412      2.00000
      8     -20.9411      2.00000
      9     -20.9410      2.00000
     10     -20.9409      2.00000
     11     -20.9408      2.00000
     12     -20.9408      2.00000
     13     -20.9406      2.00000
     14     -20.9379      2.00000
     15     -20.9378      2.00000
     16     -20.9378      2.00000
     17     -20.9375      2.00000
     18     -20.9373      2.00000
     19     -20.9372      2.00000
     20     -20.9370      2.00000
     21     -20.9370      2.00000
     22     -20.9369      2.00000
     23     -20.9368      2.00000
     24     -20.9368      2.00000
     25     -20.9367      2.00000
     26     -20.9365      2.00000
     27     -20.9363      2.00000
     28     -20.9363      2.00000
     29     -20.9303      2.00000
     30     -20.9303      2.00000
     31     -20.9302      2.00000
     32     -20.9300      2.00000
     33     -20.9300      2.00000
     34     -20.9299      2.00000
     35     -20.9298      2.00000
     36     -20.9297      2.00000
     37     -20.9297      2.00000
     38     -20.9286      2.00000
     39     -20.9285      2.00000
     40     -20.9283      2.00000
     41     -20.9275      2.00000
     42     -20.9274      2.00000
     43     -20.9273      2.00000
     44     -20.9254      2.00000
     45     -20.9254      2.00000
     46     -20.9253      2.00000
     47     -20.9253      2.00000
     48     -20.9252      2.00000
     49     -20.9252      2.00000
     50     -20.9251      2.00000
     51     -20.9250      2.00000
     52     -20.9250      2.00000
     53     -20.9249      2.00000
     54     -20.9249      2.00000
     55     -20.9248      2.00000
     56     -20.9247      2.00000
     57     -20.9247      2.00000
     58     -20.9246      2.00000
     59     -20.9234      2.00000
     60     -20.9233      2.00000
     61     -20.9232      2.00000
     62     -20.9228      2.00000
     63     -20.9227      2.00000
     64     -20.9226      2.00000
     65     -20.9222      2.00000
     66     -20.9219      2.00000
     67     -20.9219      2.00000
     68     -20.9218      2.00000
     69     -20.9217      2.00000
     70     -20.9217      2.00000
     71     -20.9215      2.00000
     72     -20.9213      2.00000
     73     -20.9213      2.00000
     74     -20.9212      2.00000
     75     -20.9211      2.00000
     76     -20.9211      2.00000
     77     -20.9210      2.00000
     78     -20.9210      2.00000
     79     -20.9208      2.00000
     80     -20.9208      2.00000
     81     -20.9205      2.00000
     82     -20.9204      2.00000
     83     -20.9203      2.00000
     84     -20.9199      2.00000
     85     -20.9198      2.00000
     86     -20.9197      2.00000
     87     -20.9194      2.00000
     88     -20.9193      2.00000
     89     -20.9192      2.00000
     90     -20.9191      2.00000
     91     -20.9190      2.00000
     92     -20.9184      2.00000
     93     -20.9183      2.00000
     94     -20.9182      2.00000
     95     -20.9178      2.00000
     96     -20.9175      2.00000
     97     -14.4820      2.00000
     98     -14.3947      2.00000
     99     -14.3945      2.00000
    100     -14.3940      2.00000
    101     -14.3285      2.00000
    102     -14.3279      2.00000
    103     -14.3276      2.00000
    104     -14.2839      2.00000
    105     -14.2836      2.00000
    106     -14.2834      2.00000
    107     -14.2831      2.00000
    108     -14.2492      2.00000
    109     -14.2489      2.00000
    110     -14.2485      2.00000
    111     -14.2484      2.00000
    112     -14.2482      2.00000
    113     -14.2478      2.00000
    114     -14.2369      2.00000
    115     -14.2366      2.00000
    116     -14.2363      2.00000
    117     -14.2156      2.00000
    118     -14.2154      2.00000
    119     -14.2151      2.00000
    120     -14.2148      2.00000
    121     -14.2146      2.00000
    122     -14.2142      2.00000
    123     -14.2040      2.00000
    124     -14.2037      2.00000
    125     -14.2036      2.00000
    126     -14.2034      2.00000
    127     -14.2029      2.00000
    128     -14.2026      2.00000
    129      -3.3281      2.00000
    130      -3.3274      2.00000
    131      -3.3265      2.00000
    132      -3.2334      2.00000
    133      -3.1329      2.00000
    134      -3.1324      2.00000
    135      -3.1315      2.00000
    136      -3.0999      2.00000
    137      -3.0984      2.00000
    138      -3.0977      2.00000
    139      -3.0929      2.00000
    140      -3.0927      2.00000
    141      -3.0923      2.00000
    142      -3.0916      2.00000
    143      -3.0914      2.00000
    144      -3.0909      2.00000
    145      -2.9991      2.00000
    146      -2.9985      2.00000
    147      -2.9982      2.00000
    148      -2.9979      2.00000
    149      -2.9974      2.00000
    150      -2.9963      2.00000
    151      -2.9668      2.00000
    152      -2.9658      2.00000
    153      -2.9650      2.00000
    154      -2.9086      2.00000
    155      -2.9081      2.00000
    156      -2.9072      2.00000
    157      -2.6375      2.00000
    158      -2.6367      2.00000
    159      -2.6364      2.00000
    160      -2.6361      2.00000
    161      -2.6357      2.00000
    162      -2.6348      2.00000
    163      -2.5883      2.00000
    164      -2.5877      2.00000
    165      -2.5873      2.00000
    166      -2.5660      2.00000
    167      -2.5652      2.00000
    168      -2.5645      2.00000
    169      -2.4052      2.00000
    170      -2.4045      2.00000
    171      -2.4041      2.00000
    172      -2.3693      2.00000
    173      -2.3688      2.00000
    174      -2.3683      2.00000
    175      -2.3678      2.00000
    176      -2.3674      2.00000
    177      -2.3666      2.00000
    178      -2.2862      2.00000
    179      -2.2859      2.00000
    180      -2.2855      2.00000
    181      -2.2850      2.00000
    182      -2.2846      2.00000
    183      -2.2841      2.00000
    184      -2.2609      2.00000
    185      -2.2602      2.00000
    186      -2.2594      2.00000
    187      -2.2079      2.00000
    188      -2.2069      2.00000
    189      -2.2063      2.00000
    190      -2.1732      2.00000
    191      -2.1730      2.00000
    192      -2.1727      2.00000
    193      -2.1428      2.00000
    194      -2.1422      2.00000
    195      -2.1417      2.00000
    196      -2.1237      2.00000
    197      -2.1232      2.00000
    198      -2.1221      2.00000
    199      -2.1171      2.00000
    200      -2.1167      2.00000
    201      -2.1160      2.00000
    202      -2.1002      2.00000
    203      -2.0996      2.00000
    204      -2.0992      2.00000
    205      -2.0988      2.00000
    206      -2.0987      2.00000
    207      -2.0981      2.00000
    208      -2.0979      2.00000
    209      -2.0654      2.00000
    210      -2.0648      2.00000
    211      -2.0643      2.00000
    212      -1.9906      2.00000
    213      -1.9902      2.00000
    214      -1.9664      2.00000
    215      -1.9657      2.00000
    216      -1.9652      2.00000
    217      -1.9582      2.00000
    218      -1.9576      2.00000
    219      -1.9573      2.00000
    220      -1.9381      2.00000
    221      -1.9377      2.00000
    222      -1.9371      2.00000
    223      -1.8322      2.00000
    224      -1.8319      2.00000
    225       4.2389      0.00000
    226       5.1855      0.00000
    227       5.1876      0.00000
    228       5.1922      0.00000
    229       5.8139      0.00000
    230       5.8182      0.00000
    231       5.8327      0.00000
    232       5.8649      0.00000
    233       6.3586      0.00000
    234       6.3609      0.00000
    235       6.3726      0.00000
    236       6.3910      0.00000
    237       6.4142      0.00000
    238       6.4177      0.00000
    239       6.7161      0.00000
    240       6.7310      0.00000
    241       6.7408      0.00000
    242       6.7951      0.00000
    243       6.8005      0.00000
    244       6.8155      0.00000
    245       6.8284      0.00000
    246       6.8465      0.00000
    247       6.9086      0.00000
    248       7.1774      0.00000
    249       7.1913      0.00000
    250       7.2051      0.00000
    251       7.2443      0.00000
    252       7.2724      0.00000
    253       7.3088      0.00000
    254       7.4451      0.00000
    255       7.4764      0.00000
    256       7.5089      0.00000
    257       7.5602      0.00000
    258       7.5981      0.00000
    259       7.6692      0.00000
    260       7.7354      0.00000
    261       7.8526      0.00000
    262       7.9407      0.00000
    263       8.0021      0.00000
    264       8.1030      0.00000
    265       8.1610      0.00000
    266       8.2263      0.00000
    267       8.2782      0.00000
    268       8.4339      0.00000
    269       8.5222      0.00000
    270       8.5654      0.00000
    271       8.6476      0.00000
    272       8.7201      0.00000


----------------------------------------- Iteration    1(   5)  ---------------------------------------


     EDDAV:  cpu time    9.55: real time    9.59
       DOS:  cpu time    0.00: real time    0.00
    CHARGE:  cpu time    1.08: real time    1.08
    MIXING:  cpu time    0.00: real time    0.01
    --------------------------------------------
      LOOP:  cpu time   10.64: real time   10.68

 eigenvalue-minimisations  :   816
 total energy-change (2. order) :-0.9282608E+00  (-0.9281479E+00)
 number of electron     447.9999923 magnetization
 augmentation part      111.8540059 magnetization

 Broyden mixing:
  rms(total) = 0.10569E+01    rms(broyden)= 0.10565E+01
  rms(prec ) = 0.15931E+01
  weight for this iteration     100.00

 Free energy of the ion-electron system (eV)
  ---------------------------------------------------
  alpha Z        PSCENC =       668.86209959
  Ewald energy   TEWEN  =    -22516.54734859
  -1/2 Hartree   DENC   =     -9185.63326179
  -exchange  EXHF       =         0.00000000
  -V(xc)+E(xc)   XCENC  =      1431.91611847
  PAW double counting   =     21065.31730818   -23903.28520446
  entropy T*S    EENTRO =         0.00000000
  eigenvalues    EBANDS =     -5407.45771200
  atomic energy  EATOM  =     37623.51160799
  ---------------------------------------------------
  free energy    TOTEN  =      -223.31639262 eV

  energy without entropy =     -223.31639262  energy(sigma->0) =     -223.31639262


--------------------------------------------------------------------------------------------------------


 E-fermi :  -0.8236     XC(G=0):  -8.3739     alpha+bet : -7.9814


 k-point   1 :       0.2500    0.2500    0.2500
  band No.  band energies     occupation
      1     -20.9477      2.00000
      2     -20.9477      2.00000
      3     -20.9476      2.00000
      4     -20.9458      2.00000
      5     -20.9417      2.00000
      6     -20.9417      2.00000
      7     -20.9417      2.00000
      8     -20.9414      2.00000
      9     -20.9414      2.00000
     10     -20.9414      2.00000
     11     -20.9414      2.00000
     12     -20.9414      2.00000
     13     -20.9414      2.00000
     14     -20.9383      2.00000
     15     -20.9383      2.00000
     16     -20.9383      2.00000
     17     -20.9378      2.00000
     18     -20.9378      2.00000
     19     -20.9378      2.00000
     20     -20.9373      2.00000
     21     -20.9373      2.00000
     22     -20.9373      2.00000
     23     -20.9373      2.00000
     24     -20.9373      2.00000
     25     -20.9373      2.00000
     26     -20.9369      2.00000
     27     -20.9369      2.00000
     28     -20.9369      2.00000
     29     -20.9307      2.00000
     30     -20.9307      2.00000
     31     -20.9307      2.00000
     32     -20.9304      2.00000
     33     -20.9304      2.00000
     34     -20.9304      2.00000
     35     -20.9304      2.00000
     36     -20.9304      2.00000
     37     -20.9304      2.00000
     38     -20.9290      2.00000
     39     -20.9290      2.00000
     40     -20.9290      2.00000
     41     -20.9278      2.00000
     42     -20.9278      2.00000
     43     -20.9278      2.00000
     44     -20.9258      2.00000
     45     -20.9258      2.00000
     46     -20.9258      2.00000
     47     -20.9258      2.00000
     48     -20.9258      2.00000
     49     -20.9258      2.00000
     50     -20.9254      2.00000
     51     -20.9254      2.00000
     52     -20.9254      2.00000
     53     -20.9254      2.00000
     54     -20.9254      2.00000
     55     -20.9254      2.00000
     56     -20.9253      2.00000
     57     -20.9253      2.00000
     58     -20.9253      2.00000
     59     -20.9238      2.00000
     60     -20.9238      2.00000
     61     -20.9238      2.00000
     62     -20.9232      2.00000
     63     -20.9232      2.00000
     64     -20.9232      2.00000
     65     -20.9228      2.00000
     66     -20.9223      2.00000
     67     -20.9223      2.00000
     68     -20.9223      2.00000
     69     -20.9221      2.00000
     70     -20.9221      2.00000
     71     -20.9221      2.00000
     72     -20.9218      2.00000
     73     -20.9218      2.00000
     74     -20.9218      2.00000
     75     -20.9215      2.00000
     76     -20.9215      2.00000
     77     -20.9215      2.00000
     78     -20.9215      2.00000
     79     -20.9215      2.00000
     80     -20.9215      2.00000
     81     -20.9209      2.00000
     82     -20.9209      2.00000
     83     -20.9209      2.00000
     84     -20.9203      2.00000
     85     -20.9203      2.00000
     86     -20.9203      2.00000
     87     -20.9198      2.00000
     88     -20.9198      2.00000
     89     -20.9198      2.00000
     90     -20.9197      2.00000
     91     -20.9197      2.00000
     92     -20.9189      2.00000
     93     -20.9189      2.00000
     94     -20.9189      2.00000
     95     -20.9183      2.00000
     96     -20.9183      2.00000
     97     -14.4838      2.00000
     98     -14.3966      2.00000
     99     -14.3966      2.00000
    100     -14.3966      2.00000
    101     -14.3303      2.00000
    102     -14.3302      2.00000
    103     -14.3302      2.00000
    104     -14.2858      2.00000
    105     -14.2858      2.00000
    106     -14.2858      2.00000
    107     -14.2857      2.00000
    108     -14.2508      2.00000
    109     -14.2508      2.00000
    110     -14.2508      2.00000
    111     -14.2508      2.00000
    112     -14.2508      2.00000
    113     -14.2508      2.00000
    114     -14.2388      2.00000
    115     -14.2388      2.00000
    116     -14.2388      2.00000
    117     -14.2175      2.00000
    118     -14.2174      2.00000
    119     -14.2174      2.00000
    120     -14.2170      2.00000
    121     -14.2170      2.00000
    122     -14.2170      2.00000
    123     -14.2056      2.00000
    124     -14.2056      2.00000
    125     -14.2056      2.00000
    126     -14.2056      2.00000
    127     -14.2055      2.00000
    128     -14.2055      2.00000
    129      -3.3324      2.00000
    130      -3.3324      2.00000
    131      -3.3324      2.00000
    132      -3.2375      2.00000
    133      -3.1361      2.00000
    134      -3.1360      2.00000
    135      -3.1360      2.00000
    136      -3.1037      2.00000
    137      -3.1037      2.00000
    138      -3.1036      2.00000
    139      -3.0962      2.00000
    140      -3.0962      2.00000
    141      -3.0962      2.00000
    142      -3.0962      2.00000
    143      -3.0962      2.00000
    144      -3.0962      2.00000
    145      -3.0021      2.00000
    146      -3.0021      2.00000
    147      -3.0020      2.00000
    148      -3.0020      2.00000
    149      -3.0020      2.00000
    150      -3.0020      2.00000
    151      -2.9698      2.00000
    152      -2.9698      2.00000
    153      -2.9698      2.00000
    154      -2.9118      2.00000
    155      -2.9117      2.00000
    156      -2.9117      2.00000
    157      -2.6402      2.00000
    158      -2.6402      2.00000
    159      -2.6402      2.00000
    160      -2.6402      2.00000
    161      -2.6401      2.00000
    162      -2.6401      2.00000
    163      -2.5917      2.00000
    164      -2.5917      2.00000
    165      -2.5916      2.00000
    166      -2.5687      2.00000
    167      -2.5687      2.00000
    168      -2.5687      2.00000
    169      -2.4078      2.00000
    170      -2.4078      2.00000
    171      -2.4078      2.00000
    172      -2.3715      2.00000
    173      -2.3715      2.00000
    174      -2.3715      2.00000
    175      -2.3715      2.00000
    176      -2.3715      2.00000
    177      -2.3714      2.00000
    178      -2.2886      2.00000
    179      -2.2886      2.00000
    180      -2.2885      2.00000
    181      -2.2885      2.00000
    182      -2.2885      2.00000
    183      -2.2885      2.00000
    184      -2.2633      2.00000
    185      -2.2632      2.00000
    186      -2.2632      2.00000
    187      -2.2108      2.00000
    188      -2.2107      2.00000
    189      -2.2107      2.00000
    190      -2.1760      2.00000
    191      -2.1760      2.00000
    192      -2.1760      2.00000
    193      -2.1456      2.00000
    194      -2.1455      2.00000
    195      -2.1455      2.00000
    196      -2.1266      2.00000
    197      -2.1266      2.00000
    198      -2.1266      2.00000
    199      -2.1194      2.00000
    200      -2.1194      2.00000
    201      -2.1194      2.00000
    202      -2.1027      2.00000
    203      -2.1020      2.00000
    204      -2.1020      2.00000
    205      -2.1020      2.00000
    206      -2.1019      2.00000
    207      -2.1019      2.00000
    208      -2.1019      2.00000
    209      -2.0679      2.00000
    210      -2.0678      2.00000
    211      -2.0678      2.00000
    212      -1.9937      2.00000
    213      -1.9936      2.00000
    214      -1.9688      2.00000
    215      -1.9688      2.00000
    216      -1.9687      2.00000
    217      -1.9608      2.00000
    218      -1.9608      2.00000
    219      -1.9608      2.00000
    220      -1.9404      2.00000
    221      -1.9403      2.00000
    222      -1.9403      2.00000
    223      -1.8351      2.00000
    224      -1.8350      2.00000
    225       4.2355      0.00000
    226       5.1794      0.00000
    227       5.1794      0.00000
    228       5.1796      0.00000
    229       5.8023      0.00000
    230       5.8026      0.00000
    231       5.8032      0.00000
    232       5.8560      0.00000
    233       6.3499      0.00000
    234       6.3502      0.00000
    235       6.3505      0.00000
    236       6.3695      0.00000
    237       6.3706      0.00000
    238       6.3715      0.00000
    239       6.7065      0.00000
    240       6.7073      0.00000
    241       6.7081      0.00000
    242       6.7727      0.00000
    243       6.7734      0.00000
    244       6.7740      0.00000
    245       6.7750      0.00000
    246       6.7769      0.00000
    247       6.7822      0.00000
    248       7.1463      0.00000
    249       7.1484      0.00000
    250       7.1534      0.00000
    251       7.1728      0.00000
    252       7.1791      0.00000
    253       7.1845      0.00000
    254       7.3916      0.00000
    255       7.3973      0.00000
    256       7.4021      0.00000
    257       7.4128      0.00000
    258       7.4198      0.00000
    259       7.4355      0.00000
    260       7.6481      0.00000
    261       7.6725      0.00000
    262       7.6982      0.00000
    263       7.8648      0.00000
    264       7.8914      0.00000
    265       7.9275      0.00000
    266       7.9519      0.00000
    267       7.9876      0.00000
    268       8.1766      0.00000
    269       8.3019      0.00000
    270       8.3525      0.00000
    271       8.4220      0.00000
    272       8.5723      0.00000


----------------------------------------- Iteration    1(   6)  ---------------------------------------


    POTLOK:  cpu time    0.71: real time    0.72
    SETDIJ:  cpu time    0.48: real time    0.48
     EDDAV:  cpu time    7.66: real time    7.69
       DOS:  cpu time    0.00: real time    0.00
    CHARGE:  cpu time    1.08: real time    1.07
    MIXING:  cpu time    0.21: real time    0.22
    --------------------------------------------
      LOOP:  cpu time   10.15: real time   10.20

 eigenvalue-minimisations  :   616
 total energy-change (2. order) : 0.6320661E+01  (-0.1521289E+01)
 number of electron     447.9999924 magnetization
 augmentation part      112.7066975 magnetization

 Broyden mixing:
  rms(total) = 0.47069E+00    rms(broyden)= 0.47054E+00
  rms(prec ) = 0.67257E+00
  weight for this iteration     100.00

 eigenvalues of (default mixing * dielectric matrix)
  average eigenvalue GAMMA=   1.2876
  1.2876

 Free energy of the ion-electron system (eV)
  ---------------------------------------------------
  alpha Z        PSCENC =       668.86209959
  Ewald energy   TEWEN  =    -22516.54734859
  -1/2 Hartree   DENC   =     -9282.79579574
  -exchange  EXHF       =         0.00000000
  -V(xc)+E(xc)   XCENC  =      1443.46952710
  PAW double counting   =     21459.12058427   -24296.43204403
  entropy T*S    EENTRO =         0.00000000
  eigenvalues    EBANDS =     -5316.18436171
  atomic energy  EATOM  =     37623.51160799
  ---------------------------------------------------
  free energy    TOTEN  =      -216.99573113 eV

  energy without entropy =     -216.99573113  energy(sigma->0) =     -216.99573113


[...]
      0.000000  8.535452  8.535452    -0.085002    0.096198   -0.021298
      5.690301  8.535452  8.535452    -0.085002    0.106252   -0.026391
      2.845151  0.000000  2.845151     0.087344   -0.124870    0.037947
      8.535452  0.000000  2.845151     0.087344   -0.077581   -0.048887
      2.845151  5.690301  2.845151     0.128748   -0.124870    0.048887
      8.535452  5.690301  2.845151     0.128748   -0.077581   -0.037947
      2.845151  0.000000  8.535452    -0.128748    0.077581    0.037947
      8.535452  0.000000  8.535452    -0.128748    0.124870   -0.048887
      2.845151  5.690301  8.535452    -0.087344    0.077581    0.048887
      8.535452  5.690301  8.535452    -0.087344    0.124870   -0.037947
      2.845151  2.845151  0.000000    -0.006221   -0.048006    0.067261
      8.535452  2.845151  0.000000    -0.006221   -0.000716   -0.019572
      2.845151  8.535452  0.000000     0.039868   -0.048006    0.019572
      8.535452  8.535452  0.000000     0.039868   -0.000716   -0.067261
      2.845151  2.845151  5.690301    -0.039868    0.000716    0.067261
      8.535452  2.845151  5.690301    -0.039868    0.048006   -0.019572
      2.845151  8.535452  5.690301     0.006221    0.000716    0.019572
      8.535452  8.535452  5.690301     0.006221    0.048006   -0.067261
      2.845151  2.845151  2.845151     0.098006   -0.143975    0.077552
      8.535452  2.845151  2.845151     0.098006   -0.089450   -0.022567
      2.845151  8.535452  2.845151     0.151147   -0.143975    0.022567
      8.535452  8.535452  2.845151     0.151147   -0.089450   -0.077552
      2.845151  2.845151  8.535452    -0.151147    0.089450    0.077552
      8.535452  2.845151  8.535452    -0.151147    0.143975   -0.022567
      2.845151  8.535452  8.535452    -0.098006    0.089450    0.022567
      8.535452  8.535452  8.535452    -0.098006    0.143975   -0.077552
      2.845151  0.000000  0.000000    -0.004473   -0.055351    0.043752
      8.535452  0.000000  0.000000    -0.004473   -0.000826   -0.056366
      2.845151  5.690301  0.000000     0.043267   -0.055351    0.056366
      8.535452  5.690301  0.000000     0.043267   -0.000826   -0.043752
      2.845151  0.000000  5.690301    -0.043267    0.000826    0.043752
      8.535452  0.000000  5.690301    -0.043267    0.055351   -0.056366
      2.845151  5.690301  5.690301     0.004473    0.000826    0.056366
      8.535452  5.690301  5.690301     0.004473    0.055351   -0.043752
      0.000000  2.845151  0.000000    -0.007173   -0.033885    0.030428
      5.690301  2.845151  0.000000    -0.007173   -0.022292    0.024557
      0.000000  8.535452  0.000000     0.045967   -0.033885   -0.024557
      5.690301  8.535452  0.000000     0.045967   -0.022292   -0.030428
      0.000000  2.845151  5.690301    -0.045967    0.022292    0.030428
      5.690301  2.845151  5.690301    -0.045967    0.033885    0.024557
      0.000000  8.535452  5.690301     0.007173    0.022292   -0.024557
      5.690301  8.535452  5.690301     0.007173    0.033885   -0.030428
      0.000000  0.000000  2.845151     0.100707   -0.122509   -0.003371
      5.690301  0.000000  2.845151     0.100707   -0.110916   -0.009243
      0.000000  5.690301  2.845151     0.148446   -0.122509    0.009243
      5.690301  5.690301  2.845151     0.148446   -0.110916    0.003371
      0.000000  0.000000  8.535452    -0.148446    0.110916   -0.003371
      5.690301  0.000000  8.535452    -0.148446    0.122509   -0.009243
      0.000000  5.690301  8.535452    -0.100707    0.110916    0.009243
      5.690301  5.690301  8.535452    -0.100707    0.122509    0.003371

 190 f/i=    0.028540 THz     0.179320 2PiTHz    0.951982 cm-1     0.118031 meV
             X         Y         Z           dx          dy          dz
      0.000000  0.000000  0.000000     0.084054    0.010437   -0.072854
      5.690301  0.000000  0.000000     0.084054    0.010437   -0.072854
      0.000000  5.690301  0.000000     0.084054    0.010437   -0.072854
      5.690301  5.690301  0.000000     0.084054    0.010437   -0.072854
      0.000000  0.000000  5.690301     0.084054    0.010437   -0.072854
      5.690301  0.000000  5.690301     0.084054    0.010437   -0.072854
      0.000000  5.690301  5.690301     0.084054    0.010437   -0.072854
      5.690301  5.690301  5.690301     0.084054    0.010437   -0.072854
      0.000000  2.845151  2.845151     0.084054    0.010437   -0.072854
      5.690301  2.845151  2.845151     0.084054    0.010437   -0.072854
      0.000000  8.535452  2.845151     0.084054    0.010437   -0.072854
      5.690301  8.535452  2.845151     0.084054    0.010437   -0.072854
      0.000000  2.845151  8.535452     0.084054    0.010437   -0.072854
      5.690301  2.845151  8.535452     0.084054    0.010437   -0.072854
      0.000000  8.535452  8.535452     0.084054    0.010437   -0.072854
      5.690301  8.535452  8.535452     0.084054    0.010437   -0.072854
      2.845151  0.000000  2.845151     0.084054    0.010437   -0.072854
      8.535452  0.000000  2.845151     0.084054    0.010437   -0.072854
      2.845151  5.690301  2.845151     0.084054    0.010437   -0.072854
      8.535452  5.690301  2.845151     0.084054    0.010437   -0.072854
      2.845151  0.000000  8.535452     0.084054    0.010437   -0.072854
      8.535452  0.000000  8.535452     0.084054    0.010437   -0.072854
      2.845151  5.690301  8.535452     0.084054    0.010437   -0.072854
      8.535452  5.690301  8.535452     0.084054    0.010437   -0.072854
      2.845151  2.845151  0.000000     0.084054    0.010437   -0.072854
      8.535452  2.845151  0.000000     0.084054    0.010437   -0.072854
      2.845151  8.535452  0.000000     0.084054    0.010437   -0.072854
      8.535452  8.535452  0.000000     0.084054    0.010437   -0.072854
      2.845151  2.845151  5.690301     0.084054    0.010437   -0.072854
      8.535452  2.845151  5.690301     0.084054    0.010437   -0.072854
      2.845151  8.535452  5.690301     0.084054    0.010437   -0.072854
      8.535452  8.535452  5.690301     0.084054    0.010437   -0.072854
      2.845151  2.845151  2.845151     0.103071    0.012799   -0.089336
      8.535452  2.845151  2.845151     0.103071    0.012799   -0.089336
      2.845151  8.535452  2.845151     0.103071    0.012799   -0.089336
      8.535452  8.535452  2.845151     0.103071    0.012799   -0.089336
      2.845151  2.845151  8.535452     0.103071    0.012799   -0.089336
      8.535452  2.845151  8.535452     0.103071    0.012799   -0.089336
      2.845151  8.535452  8.535452     0.103071    0.012799   -0.089336
      8.535452  8.535452  8.535452     0.103071    0.012799   -0.089336
      2.845151  0.000000  0.000000     0.103071    0.012799   -0.089336
      8.535452  0.000000  0.000000     0.103071    0.012799   -0.089336
      2.845151  5.690301  0.000000     0.103071    0.012799   -0.089336
      8.535452  5.690301  0.000000     0.103071    0.012799   -0.089336
      2.845151  0.000000  5.690301     0.103071    0.012799   -0.089336
      8.535452  0.000000  5.690301     0.103071    0.012799   -0.089336
      2.845151  5.690301  5.690301     0.103071    0.012799   -0.089336
      8.535452  5.690301  5.690301     0.103071    0.012799   -0.089336
      0.000000  2.845151  0.000000     0.103071    0.012799   -0.089336
      5.690301  2.845151  0.000000     0.103071    0.012799   -0.089336
      0.000000  8.535452  0.000000     0.103071    0.012799   -0.089336
      5.690301  8.535452  0.000000     0.103071    0.012799   -0.089336
      0.000000  2.845151  5.690301     0.103071    0.012799   -0.089336
      5.690301  2.845151  5.690301     0.103071    0.012799   -0.089336
      0.000000  8.535452  5.690301     0.103071    0.012799   -0.089336
      5.690301  8.535452  5.690301     0.103071    0.012799   -0.089336
      0.000000  0.000000  2.845151     0.103071    0.012799   -0.089336
      5.690301  0.000000  2.845151     0.103071    0.012799   -0.089336
      0.000000  5.690301  2.845151     0.103071    0.012799   -0.089336
      5.690301  5.690301  2.845151     0.103071    0.012799   -0.089336
      0.000000  0.000000  8.535452     0.103071    0.012799   -0.089336
      5.690301  0.000000  8.535452     0.103071    0.012799   -0.089336
      0.000000  5.690301  8.535452     0.103071    0.012799   -0.089336
      5.690301  5.690301  8.535452     0.103071    0.012799   -0.089336

 191 f/i=    0.028540 THz     0.179320 2PiTHz    0.951982 cm-1     0.118031 meV
             X         Y         Z           dx          dy          dz
      0.000000  0.000000  0.000000    -0.059285   -0.055930   -0.076412
      5.690301  0.000000  0.000000    -0.059285   -0.055930   -0.076412
      0.000000  5.690301  0.000000    -0.059285   -0.055930   -0.076412
      5.690301  5.690301  0.000000    -0.059285   -0.055930   -0.076412
      0.000000  0.000000  5.690301    -0.059285   -0.055930   -0.076412
      5.690301  0.000000  5.690301    -0.059285   -0.055930   -0.076412
      0.000000  5.690301  5.690301    -0.059285   -0.055930   -0.076412
      5.690301  5.690301  5.690301    -0.059285   -0.055930   -0.076412
      0.000000  2.845151  2.845151    -0.059285   -0.055930   -0.076412
      5.690301  2.845151  2.845151    -0.059285   -0.055930   -0.076412
      0.000000  8.535452  2.845151    -0.059285   -0.055930   -0.076412
      5.690301  8.535452  2.845151    -0.059285   -0.055930   -0.076412
      0.000000  2.845151  8.535452    -0.059285   -0.055930   -0.076412
      5.690301  2.845151  8.535452    -0.059285   -0.055930   -0.076412
      0.000000  8.535452  8.535452    -0.059285   -0.055930   -0.076412
      5.690301  8.535452  8.535452    -0.059285   -0.055930   -0.076412
      2.845151  0.000000  2.845151    -0.059285   -0.055930   -0.076412
      8.535452  0.000000  2.845151    -0.059285   -0.055930   -0.076412
      2.845151  5.690301  2.845151    -0.059285   -0.055930   -0.076412
      8.535452  5.690301  2.845151    -0.059285   -0.055930   -0.076412
      2.845151  0.000000  8.535452    -0.059285   -0.055930   -0.076412
      8.535452  0.000000  8.535452    -0.059285   -0.055930   -0.076412
      2.845151  5.690301  8.535452    -0.059285   -0.055930   -0.076412
      8.535452  5.690301  8.535452    -0.059285   -0.055930   -0.076412
      2.845151  2.845151  0.000000    -0.059285   -0.055930   -0.076412
      8.535452  2.845151  0.000000    -0.059285   -0.055930   -0.076412
      2.845151  8.535452  0.000000    -0.059285   -0.055930   -0.076412
      8.535452  8.535452  0.000000    -0.059285   -0.055930   -0.076412
      2.845151  2.845151  5.690301    -0.059285   -0.055930   -0.076412
      8.535452  2.845151  5.690301    -0.059285   -0.055930   -0.076412
      2.845151  8.535452  5.690301    -0.059285   -0.055930   -0.076412
      8.535452  8.535452  5.690301    -0.059285   -0.055930   -0.076412
      2.845151  2.845151  2.845151    -0.072698   -0.068584   -0.093700
      8.535452  2.845151  2.845151    -0.072698   -0.068584   -0.093700
      2.845151  8.535452  2.845151    -0.072698   -0.068584   -0.093700
      8.535452  8.535452  2.845151    -0.072698   -0.068584   -0.093700
      2.845151  2.845151  8.535452    -0.072698   -0.068584   -0.093700
      8.535452  2.845151  8.535452    -0.072698   -0.068584   -0.093700
      2.845151  8.535452  8.535452    -0.072698   -0.068584   -0.093700
      8.535452  8.535452  8.535452    -0.072698   -0.068584   -0.093700
      2.845151  0.000000  0.000000    -0.072698   -0.068584   -0.093700
      8.535452  0.000000  0.000000    -0.072698   -0.068584   -0.093700
      2.845151  5.690301  0.000000    -0.072698   -0.068584   -0.093700
      8.535452  5.690301  0.000000    -0.072698   -0.068584   -0.093700
      2.845151  0.000000  5.690301    -0.072698   -0.068584   -0.093700
      8.535452  0.000000  5.690301    -0.072698   -0.068584   -0.093700
      2.845151  5.690301  5.690301    -0.072698   -0.068584   -0.093700
      8.535452  5.690301  5.690301    -0.072698   -0.068584   -0.093700
      0.000000  2.845151  0.000000    -0.072698   -0.068584   -0.093700
      5.690301  2.845151  0.000000    -0.072698   -0.068584   -0.093700
      0.000000  8.535452  0.000000    -0.072698   -0.068584   -0.093700
      5.690301  8.535452  0.000000    -0.072698   -0.068584   -0.093700
      0.000000  2.845151  5.690301    -0.072698   -0.068584   -0.093700
      5.690301  2.845151  5.690301    -0.072698   -0.068584   -0.093700
      0.000000  8.535452  5.690301    -0.072698   -0.068584   -0.093700
      5.690301  8.535452  5.690301    -0.072698   -0.068584   -0.093700
      0.000000  0.000000  2.845151    -0.072698   -0.068584   -0.093700
      5.690301  0.000000  2.845151    -0.072698   -0.068584   -0.093700
      0.000000  5.690301  2.845151    -0.072698   -0.068584   -0.093700
      5.690301  5.690301  2.845151    -0.072698   -0.068584   -0.093700
      0.000000  0.000000  8.535452    -0.072698   -0.068584   -0.093700
      5.690301  0.000000  8.535452    -0.072698   -0.068584   -0.093700
      0.000000  5.690301  8.535452    -0.072698   -0.068584   -0.093700
      5.690301  5.690301  8.535452    -0.072698   -0.068584   -0.093700

 192 f/i=    0.028540 THz     0.179320 2PiTHz    0.951982 cm-1     0.118031 meV
             X         Y         Z           dx          dy          dz
      0.000000  0.000000  0.000000     0.043611   -0.096149    0.036541
      5.690301  0.000000  0.000000     0.043611   -0.096149    0.036541
      0.000000  5.690301  0.000000     0.043611   -0.096149    0.036541
      5.690301  5.690301  0.000000     0.043611   -0.096149    0.036541
      0.000000  0.000000  5.690301     0.043611   -0.096149    0.036541
      5.690301  0.000000  5.690301     0.043611   -0.096149    0.036541
      0.000000  5.690301  5.690301     0.043611   -0.096149    0.036541
      5.690301  5.690301  5.690301     0.043611   -0.096149    0.036541
      0.000000  2.845151  2.845151     0.043611   -0.096149    0.036541
      5.690301  2.845151  2.845151     0.043611   -0.096149    0.036541
      0.000000  8.535452  2.845151     0.043611   -0.096149    0.036541
      5.690301  8.535452  2.845151     0.043611   -0.096149    0.036541
      0.000000  2.845151  8.535452     0.043611   -0.096149    0.036541
      5.690301  2.845151  8.535452     0.043611   -0.096149    0.036541
      0.000000  8.535452  8.535452     0.043611   -0.096149    0.036541
      5.690301  8.535452  8.535452     0.043611   -0.096149    0.036541
      2.845151  0.000000  2.845151     0.043611   -0.096149    0.036541
      8.535452  0.000000  2.845151     0.043611   -0.096149    0.036541
      2.845151  5.690301  2.845151     0.043611   -0.096149    0.036541
      8.535452  5.690301  2.845151     0.043611   -0.096149    0.036541
      2.845151  0.000000  8.535452     0.043611   -0.096149    0.036541
      8.535452  0.000000  8.535452     0.043611   -0.096149    0.036541
      2.845151  5.690301  8.535452     0.043611   -0.096149    0.036541
      8.535452  5.690301  8.535452     0.043611   -0.096149    0.036541
      2.845151  2.845151  0.000000     0.043611   -0.096149    0.036541
      8.535452  2.845151  0.000000     0.043611   -0.096149    0.036541
      2.845151  8.535452  0.000000     0.043611   -0.096149    0.036541
      8.535452  8.535452  0.000000     0.043611   -0.096149    0.036541
      2.845151  2.845151  5.690301     0.043611   -0.096149    0.036541
      8.535452  2.845151  5.690301     0.043611   -0.096149    0.036541
      2.845151  8.535452  5.690301     0.043611   -0.096149    0.036541
      8.535452  8.535452  5.690301     0.043611   -0.096149    0.036541
      2.845151  2.845151  2.845151     0.053478   -0.117901    0.044808
      8.535452  2.845151  2.845151     0.053478   -0.117901    0.044808
      2.845151  8.535452  2.845151     0.053478   -0.117901    0.044808
      8.535452  8.535452  2.845151     0.053478   -0.117901    0.044808
      2.845151  2.845151  8.535452     0.053478   -0.117901    0.044808
      8.535452  2.845151  8.535452     0.053478   -0.117901    0.044808
      2.845151  8.535452  8.535452     0.053478   -0.117901    0.044808
      8.535452  8.535452  8.535452     0.053478   -0.117901    0.044808
      2.845151  0.000000  0.000000     0.053478   -0.117901    0.044808
      8.535452  0.000000  0.000000     0.053478   -0.117901    0.044808
      2.845151  5.690301  0.000000     0.053478   -0.117901    0.044808
      8.535452  5.690301  0.000000     0.053478   -0.117901    0.044808
      2.845151  0.000000  5.690301     0.053478   -0.117901    0.044808
      8.535452  0.000000  5.690301     0.053478   -0.117901    0.044808
      2.845151  5.690301  5.690301     0.053478   -0.117901    0.044808
      8.535452  5.690301  5.690301     0.053478   -0.117901    0.044808
      0.000000  2.845151  0.000000     0.053478   -0.117901    0.044808
      5.690301  2.845151  0.000000     0.053478   -0.117901    0.044808
      0.000000  8.535452  0.000000     0.053478   -0.117901    0.044808
      5.690301  8.535452  0.000000     0.053478   -0.117901    0.044808
      0.000000  2.845151  5.690301     0.053478   -0.117901    0.044808
      5.690301  2.845151  5.690301     0.053478   -0.117901    0.044808
      0.000000  8.535452  5.690301     0.053478   -0.117901    0.044808
      5.690301  8.535452  5.690301     0.053478   -0.117901    0.044808
      0.000000  0.000000  2.845151     0.053478   -0.117901    0.044808
      5.690301  0.000000  2.845151     0.053478   -0.117901    0.044808
      0.000000  5.690301  2.845151     0.053478   -0.117901    0.044808
      5.690301  5.690301  2.845151     0.053478   -0.117901    0.044808
      0.000000  0.000000  8.535452     0.053478   -0.117901    0.044808
      5.690301  0.000000  8.535452     0.053478   -0.117901    0.044808
      0.000000  5.690301  8.535452     0.053478   -0.117901    0.044808
      5.690301  5.690301  8.535452     0.053478   -0.117901    0.044808



--------------------------------------------------------------------------------------------------------



 ELASTIC MODULI IONIC CONTR (kBar)
 Direction    XX          YY          ZZ          XY          YZ          ZX
 --------------------------------------------------------------------------------
 XX           0.0000      0.0000      0.0000      0.0000      0.0000      0.0000
 YY           0.0000      0.0000      0.0000      0.0000      0.0000      0.0000
 ZZ           0.0000      0.0000      0.0000      0.0000      0.0000      0.0000
 XY           0.0000      0.0000      0.0000      0.0000      0.0000      0.0000
 YZ           0.0000      0.0000      0.0000      0.0000      0.0000      0.0000
 ZX           0.0000      0.0000      0.0000      0.0000      0.0000      0.0000
 --------------------------------------------------------------------------------



--------------------------------------------------------------------------------------------------------


     LOOP+:  cpu time  831.14: real time  834.64
    4ORBIT:  cpu time    0.00: real time    0.00

 total amount of memory used by VASP on root node   124982. kBytes
========================================================================

   base      :      30000. kBytes
   nonl-proj :      20072. kBytes
   fftplans  :      39562. kBytes
   grid      :      25395. kBytes
   one-center:        196. kBytes
   wavefun   :       9757. kBytes



 General timing and accounting informations for this job:
 ========================================================

                  Total CPU time used (sec):      836.740
                            User time (sec):      614.120
                          System time (sec):      222.620
                         Elapsed time (sec):      842.903

                   Maximum memory used (kb):      299276.
                   Average memory used (kb):           0.

                          Minor page faults:       115043
                          Major page faults:           29
                 Voluntary context switches:          785
