<?xml version="1.0" encoding="ISO-8859-1"?>
<modeling>
 <generator>
  <i name="program" type="string">vasp </i>
  <i name="version" type="string">5.2.11  </i>
  <i name="subversion" type="string">25Nov10 complex  parallel </i>
  <i name="platform" type="string">LinuxIFC </i>
  <i name="date" type="string">2011 05 26 </i>
  <i name="time" type="string">09:58:57 </i>
 </generator>
 <incar>
  <i type="string" name="PREC">accurate</i>
  <i type="int" name="IALGO">    38</i>
  <i type="logical" name="ADDGRID"> T  </i>
  <i type="int" name="NELMIN">     5</i>
  <i type="int" name="IBRION">     8</i>
  <i name="EDIFF">      0.00000001</i>
  <i type="int" name="NSW">     1</i>
  <i name="ENCUT">    300.00000000</i>
  <i type="logical" name="LREAL"> F  </i>
  <i type="int" name="ISMEAR">     0</i>
  <i name="SIGMA">      0.20000000</i>
  <i type="logical" name="LWAVE"> F  </i>
  <i type="logical" name="LCHARG"> F  </i>
  <i type="logical" name="LPEAD"> F  </i>
  <i type="logical" name="LCALCPOL"> F  </i>
  <i type="logical" name="LCALCEPS"> F  </i>
  <v name="EFIELD_PEAD">      0.00000000      0.00000000      0.00000000</v>
  <i type="logical" name="LEFG"> F  </i>
  <i type="logical" name="LRHFATM"> F  </i>
  <i type="string" name="METAGGA">--</i>
  <i type="int" name="LMAXTAU">     0</i>
 </incar>
 <kpoints>
  <generation param="Monkhorst-Pack">
   <v type="int" name="divisions">       2        2        2 </v>
   <v name="usershift">      0.00000000       0.00000000       0.00000000 </v>
   <v name="genvec1">      0.50000000       0.00000000       0.00000000 </v>
   <v name="genvec2">      0.00000000       0.50000000       0.00000000 </v>
   <v name="genvec3">      0.00000000       0.00000000       0.50000000 </v>
   <v name="shift">      0.50000000       0.50000000       0.50000000 </v>
  </generation>
  <varray name="kpointlist" >
   <v>       0.25000000       0.25000000       0.25000000 </v>
  </varray>
  <varray name="weights" >
   <v>       1.00000000 </v>
  </varray>
 </kpoints>
 <parameters>
  <separator name="general" >
   <i type="string" name="SYSTEM">unknown system</i>
   <i type="logical" name="LCOMPAT"> F  </i>
  </separator>
  <separator name="electronic" >
   <i type="string" name="PREC">accura</i>
   <i name="ENMAX">    300.00000000</i>
   <i name="ENAUG">    368.05600000</i>
   <i name="EDIFF">      0.00000001</i>
   <i type="int" name="IALGO">    38</i>
   <i type="int" name="IWAVPR">    11</i>
   <i type="int" name="NBANDS">   272</i>
   <i name="NELECT">    448.00000000</i>
   <i type="int" name="TURBO">     0</i>
   <i type="int" name="IRESTART">     0</i>
   <i type="int" name="NREBOOT">     0</i>
   <i type="int" name="NMIN">     0</i>
   <i name="EREF">      0.00000000</i>
   <separator name="electronic smearing" >
    <i type="int" name="ISMEAR">     0</i>
    <i name="SIGMA">      0.20000000</i>
    <i name="KSPACING">      0.50000000</i>
    <i type="logical" name="KGAMMA"> T  </i>
   </separator>
   <separator name="electronic projectors" >
    <i type="logical" name="LREAL"> F  </i>
    <v name="ROPT">      0.00000000      0.00000000</v>
    <i type="int" name="LMAXPAW">  -100</i>
    <i type="int" name="LMAXMIX">     2</i>
   </separator>
   <separator name="electronic startup" >
    <i type="int" name="ISTART">     0</i>
    <i type="int" name="ICHARG">     2</i>
    <i type="int" name="INIWAV">     1</i>
   </separator>
   <separator name="electronic spin" >
    <i type="int" name="ISPIN">     1</i>
    <i type="logical" name="LNONCOLLINEAR"> F  </i>
    <v name="MAGMOM">      1.00000000      1.00000000      1.00000000      1.00000000      1.00000000      1.00000000      1.00000000      1.00000000      1.00000000      1.00000000      1.00000000      1.00000000      1.00000000      1.00000000      1.00000000      1.00000000      1.00000000      1.00000000      1.00000000      1.00000000
      1.00000000      1.00000000      1.00000000      1.00000000      1.00000000      1.00000000      1.00000000      1.00000000      1.00000000      1.00000000      1.00000000      1.00000000      1.00000000      1.00000000      1.00000000      1.00000000      1.00000000      1.00000000      1.00000000      1.00000000
      1.00000000      1.00000000      1.00000000      1.00000000      1.00000000      1.00000000      1.00000000      1.00000000      1.00000000      1.00000000      1.00000000      1.00000000      1.00000000      1.00000000      1.00000000      1.00000000      1.00000000      1.00000000      1.00000000      1.00000000
      1.00000000      1.00000000      1.00000000      1.00000000</v>
    <i name="NUPDOWN">     -1.00000000</i>
    <i type="logical" name="LSORBIT"> F  </i>
    <v name="SAXIS">      0.00000000      0.00000000      1.00000000</v>
    <i type="logical" name="LSPIRAL"> F  </i>
    <v name="QSPIRAL">      0.00000000      0.00000000      0.00000000</v>
    <i type="logical" name="LZEROZ"> F  </i>
   </separator>
   <separator name="electronic exchange-correlation" >
    <i type="logical" name="LASPH"> F  </i>
    <i type="logical" name="LMETAGGA"> F  </i>
   </separator>
   <separator name="electronic convergence" >
    <i type="int" name="NELM">    60</i>
    <i type="int" name="NELMDL">    -5</i>
    <i type="int" name="NELMIN">     5</i>
    <i name="ENINI">    300.00000000</i>
    <separator name="electronic convergence detail" >
     <i type="logical" name="LDIAG"> T  </i>
     <i type="logical" name="LSUBROT"> T  </i>
     <i name="WEIMIN">      0.00100000</i>
     <i name="EBREAK">      0.00000000</i>
     <i name="DEPER">      0.30000000</i>
     <i type="int" name="NRMM">     4</i>
     <i name="TIME">      0.40000000</i>
    </separator>
   </separator>
   <separator name="electronic mixer" >
    <i name="AMIX">      0.40000000</i>
    <i name="BMIX">      1.00000000</i>
    <i name="AMIN">      0.10000000</i>
    <i name="AMIX_MAG">      1.60000000</i>
    <i name="BMIX_MAG">      1.00000000</i>
    <separator name="electronic mixer details" >
     <i type="int" name="IMIX">     4</i>
     <i type="int" name="MAXMIX">   -45</i>
     <i name="WC">    100.00000000</i>
     <i type="int" name="INIMIX">     1</i>
     <i type="int" name="MIXPRE">     1</i>
     <i type="int" name="MREMOVE">     5</i>
    </separator>
   </separator>
   <separator name="electronic dipolcorrection" >
    <i type="logical" name="LDIPOL"> F  </i>
    <i type="logical" name="LMONO"> F  </i>
    <i type="int" name="IDIPOL">     0</i>
    <i name="EPSILON">      1.00000000</i>
    <v name="DIPOL">   -100.00000000   -100.00000000   -100.00000000</v>
    <i name="EFIELD">      0.00000000</i>
   </separator>
  </separator>
  <separator name="grids" >
   <i type="int" name="NGX">    64</i>
   <i type="int" name="NGY">    64</i>
   <i type="int" name="NGZ">    64</i>
   <i type="int" name="NGXF">   128</i>
   <i type="int" name="NGYF">   128</i>
   <i type="int" name="NGZF">   128</i>
   <i type="logical" name="ADDGRID"> T  </i>
  </separator>
  <separator name="ionic" >
   <i type="int" name="NSW">     1</i>
   <i type="int" name="IBRION">     8</i>
   <i type="int" name="ISIF">     2</i>
   <i name="PSTRESS">      0.00000000</i>
   <i name="EDIFFG">      0.00000010</i>
   <i type="int" name="NFREE">     0</i>
   <i name="POTIM">      0.50000000</i>
   <i name="SMASS">     -3.00000000</i>
  </separator>
  <separator name="ionic md" >
   <i name="TEBEG">      0.00010000</i>
   <i name="TEEND">      0.00010000</i>
   <i type="int" name="NBLOCK">     1</i>
   <i type="int" name="KBLOCK">     1</i>
   <i type="int" name="NPACO">   256</i>
   <i name="APACO">     16.00000000</i>
  </separator>
  <separator name="symmetry" >
   <i type="int" name="ISYM">     2</i>
   <i name="SYMPREC">      0.00001000</i>
  </separator>
  <separator name="dos" >
   <i type="logical" name="LORBIT"> F  </i>
   <v name="RWIGS">     -1.00000000     -1.00000000</v>
   <i type="int" name="NEDOS">   301</i>
   <i name="EMIN">     10.00000000</i>
   <i name="EMAX">    -10.00000000</i>
   <i name="EFERMI">      0.00000000</i>
  </separator>
  <separator name="writing" >
   <i type="int" name="NWRITE">     2</i>
   <i type="logical" name="LWAVE"> F  </i>
   <i type="logical" name="LCHARG"> F  </i>
   <i type="logical" name="LPARD"> F  </i>
   <i type="logical" name="LVTOT"> F  </i>
   <i type="logical" name="LVHAR"> F  </i>
   <i type="logical" name="LELF"> F  </i>
   <i type="logical" name="LOPTICS"> F  </i>
   <v name="STM">      0.00000000      0.00000000      0.00000000      0.00000000      0.00000000</v>
  </separator>
  <separator name="performance" >
   <i type="int" name="NPAR">     8</i>
   <i type="int" name="NSIM">     4</i>
   <i type="int" name="NBLK">    -1</i>
   <i type="logical" name="LPLANE"> T  </i>
   <i type="logical" name="LSCALAPACK"> F  </i>
   <i type="logical" name="LSCAAWARE"> F  </i>
   <i type="logical" name="LSCALU"> F  </i>
   <i type="logical" name="LASYNC"> F  </i>
   <i type="logical" name="LORBITALREAL"> F  </i>
  </separator>
  <separator name="miscellaneous" >
   <i type="int" name="IDIOT">     3</i>
   <i type="logical" name="LMUSIC"> F  </i>
   <v name="POMASS">     22.99000000     35.45300000</v>
   <v name="DARWINR">      0.00000000      0.00000000</v>
   <v name="DARWINV">      1.00000000      1.00000000</v>
   <i type="logical" name="LCORR"> T  </i>
  </separator>
  <i type="logical" name="GGA_COMPAT"> T  </i>
  <i type="logical" name="LBERRY"> F  </i>
  <i type="int" name="ICORELEVEL">     0</i>
  <i type="logical" name="LDAU"> F  </i>
  <i type="int" name="I_CONSTRAINED_M">     0</i>
  <separator name="electronic exchange-correlation" >
   <i type="string" name="GGA">--</i>
   <i type="int" name="VOSKOWN">     0</i>
   <i type="logical" name="LHFCALC"> F  </i>
   <i type="string" name="PRECFOCK"></i>
   <i type="logical" name="LHFONE"> F  </i>
   <i type="logical" name="LRHFCALC"> F  </i>
   <i type="logical" name="LTHOMAS"> F  </i>
   <i type="logical" name="LMODELHF"> F  </i>
   <i name="ENCUT4O">     -1.00000000</i>
   <i type="int" name="EXXOEP">     0</i>
   <i type="int" name="FOURORBIT">     0</i>
   <i name="AEXX">      0.00000000</i>
   <i name="HFALPHA">      0.00000000</i>
   <i name="ALDAX">      1.00000000</i>
   <i name="AGGAX">      1.00000000</i>
   <i name="ALDAC">      1.00000000</i>
   <i name="AGGAC">      1.00000000</i>
   <i type="int" name="NKREDX">     1</i>
   <i type="int" name="NKREDY">     1</i>
   <i type="int" name="NKREDZ">     1</i>
   <i type="logical" name="SHIFTRED"> F  </i>
   <i type="logical" name="ODDONLY"> F  </i>
   <i type="logical" name="EVENONLY"> F  </i>
   <i type="int" name="LMAXFOCK">     0</i>
   <i type="int" name="NMAXFOCKAE">     0</i>
   <i type="logical" name="LFOCKAEDFT"> F  </i>
   <i name="HFSCREEN">      0.00000000</i>
   <i name="HFSCREENC">      0.00000000</i>
  </separator>
  <separator name="model GW" >
   <i type="int" name="MODEL_GW">     0</i>
   <i name="MODEL_EPS0">     13.81869693</i>
   <i name="MODEL_ALPHA">      1.00000000</i>
  </separator>
  <separator name="linear response parameters" >
   <i type="logical" name="LEPSILON"> F  </i>
   <i type="logical" name="LRPA"> F  </i>
   <i type="logical" name="LNABLA"> F  </i>
   <i type="logical" name="LVEL"> F  </i>
   <i type="int" name="KINTER">     0</i>
   <i name="CSHIFT">      0.10000000</i>
   <i name="OMEGAMAX">     -1.00000000</i>
  </separator>
  <separator name="orbital magnetization" >
   <i type="logical" name="ORBITALMAG"> F  </i>
   <i type="logical" name="LMAGBLOCH"> F  </i>
   <i type="logical" name="LCHIMAG"> F  </i>
   <i type="logical" name="LGAUGE"> T  </i>
   <i type="int" name="MAGATOM">     0</i>
   <v name="MAGDIPOL">      0.00000000      0.00000000      0.00000000</v>
   <v name="AVECCONST">      0.00000000      0.00000000      0.00000000</v>
  </separator>
  <separator name="response functions" >
   <i type="logical" name="LRPA"> T  </i>
   <i type="logical" name="LTCTE"> F  </i>
   <i type="logical" name="LTETE"> F  </i>
   <i type="logical" name="L2ORDER"> F  </i>
   <i type="logical" name="LUSEW"> F  </i>
   <i name="ENCUTGW">     -2.00000000</i>
   <i name="ENCUTGWSOFT">     -2.00000000</i>
   <i name="ENCUTLF">     -1.00000000</i>
   <i type="int" name="LMAXMP2">    -1</i>
   <i name="SCISSOR">      0.00000000</i>
   <i type="int" name="NOMEGA">     0</i>
   <i type="int" name="NOMEGAR">     0</i>
   <i type="int" name="NBANDSGW">    -1</i>
   <i type="int" name="NBANDSO">    -1</i>
   <i type="int" name="NBANDSV">    -1</i>
   <i type="int" name="NELM">     1</i>
   <i type="int" name="DIM">     3</i>
   <i type="int" name="ANTIRES">     0</i>
   <i name="OMEGAMAX">    -30.00000000</i>
   <i name="OMEGATL">   -200.00000000</i>
   <i type="int" name="OMEGAGRID">     0</i>
   <i name="CSHIFT">     -0.10000000</i>
   <i type="logical" name="SELFENERGY"> F  </i>
   <i type="logical" name="LSPECTRAL"> F  </i>
   <i type="logical" name="ODDONLYGW"> F  </i>
   <i type="logical" name="EVENONLYGW"> F  </i>
   <i type="int" name="NKREDLFX">     1</i>
   <i type="int" name="NKREDLFY">     1</i>
   <i type="int" name="NKREDLFZ">     1</i>
   <i type="int" name="MAXMEM">  1800</i>
   <i type="int" name="TELESCOPE">     0</i>
  </separator>
 </parameters>
 <atominfo>
  <atoms>      64 </atoms>
  <types>       2 </types>
  <array name="atoms" >
   <dimension dim="1">ion</dimension>
   <field type="string">element</field>
   <field type="int">atomtype</field>
   <set>
    <rc><c>Na</c><c>   1</c></rc>
    <rc><c>Na</c><c>   1</c></rc>
    <rc><c>Na</c><c>   1</c></rc>
    <rc><c>Na</c><c>   1</c></rc>
    <rc><c>Na</c><c>   1</c></rc>
    <rc><c>Na</c><c>   1</c></rc>
    <rc><c>Na</c><c>   1</c></rc>
    <rc><c>Na</c><c>   1</c></rc>
    <rc><c>Na</c><c>   1</c></rc>
    <rc><c>Na</c><c>   1</c></rc>
    <rc><c>Na</c><c>   1</c></rc>
    <rc><c>Na</c><c>   1</c></rc>
    <rc><c>Na</c><c>   1</c></rc>
    <rc><c>Na</c><c>   1</c></rc>
    <rc><c>Na</c><c>   1</c></rc>
    <rc><c>Na</c><c>   1</c></rc>
    <rc><c>Na</c><c>   1</c></rc>
    <rc><c>Na</c><c>   1</c></rc>
    <rc><c>Na</c><c>   1</c></rc>
    <rc><c>Na</c><c>   1</c></rc>
    <rc><c>Na</c><c>   1</c></rc>
    <rc><c>Na</c><c>   1</c></rc>
    <rc><c>Na</c><c>   1</c></rc>
    <rc><c>Na</c><c>   1</c></rc>
    <rc><c>Na</c><c>   1</c></rc>
    <rc><c>Na</c><c>   1</c></rc>
    <rc><c>Na</c><c>   1</c></rc>
    <rc><c>Na</c><c>   1</c></rc>
    <rc><c>Na</c><c>   1</c></rc>
    <rc><c>Na</c><c>   1</c></rc>
    <rc><c>Na</c><c>   1</c></rc>
    <rc><c>Na</c><c>   1</c></rc>
    <rc><c>Cl</c><c>   2</c></rc>
    <rc><c>Cl</c><c>   2</c></rc>
    <rc><c>Cl</c><c>   2</c></rc>
    <rc><c>Cl</c><c>   2</c></rc>
    <rc><c>Cl</c><c>   2</c></rc>
    <rc><c>Cl</c><c>   2</c></rc>
    <rc><c>Cl</c><c>   2</c></rc>
    <rc><c>Cl</c><c>   2</c></rc>
    <rc><c>Cl</c><c>   2</c></rc>
    <rc><c>Cl</c><c>   2</c></rc>
    <rc><c>Cl</c><c>   2</c></rc>
    <rc><c>Cl</c><c>   2</c></rc>
    <rc><c>Cl</c><c>   2</c></rc>
    <rc><c>Cl</c><c>   2</c></rc>
    <rc><c>Cl</c><c>   2</c></rc>
    <rc><c>Cl</c><c>   2</c></rc>
    <rc><c>Cl</c><c>   2</c></rc>
    <rc><c>Cl</c><c>   2</c></rc>
    <rc><c>Cl</c><c>   2</c></rc>
    <rc><c>Cl</c><c>   2</c></rc>
    <rc><c>Cl</c><c>   2</c></rc>
    <rc><c>Cl</c><c>   2</c></rc>
    <rc><c>Cl</c><c>   2</c></rc>
    <rc><c>Cl</c><c>   2</c></rc>
    <rc><c>Cl</c><c>   2</c></rc>
    <rc><c>Cl</c><c>   2</c></rc>
    <rc><c>Cl</c><c>   2</c></rc>
    <rc><c>Cl</c><c>   2</c></rc>
    <rc><c>Cl</c><c>   2</c></rc>
    <rc><c>Cl</c><c>   2</c></rc>
    <rc><c>Cl</c><c>   2</c></rc>
    <rc><c>Cl</c><c>   2</c></rc>
   </set>
  </array>
  <array name="atomtypes" >
   <dimension dim="1">type</dimension>
   <field type="int">atomspertype</field>
   <field type="string">element</field>
   <field>mass</field>
   <field>valence</field>
   <field type="string">pseudopotential</field>
   <set>
    <rc><c>  32</c><c>Na</c><c>     22.99000000</c><c>      7.00000000</c><c>  PAW_PBE Na_pv 05Jan2001               </c></rc>
    <rc><c>  32</c><c>Cl</c><c>     35.45300000</c><c>      7.00000000</c><c>  PAW_PBE Cl 17Jan2003                  </c></rc>
   </set>
  </array>
 </atominfo>
 <structure name="initialpos" >
  <crystal>
   <varray name="basis" >
    <v>      11.38060295       0.00000000       0.00000000 </v>
    <v>       0.00000000      11.38060295       0.00000000 </v>
    <v>       0.00000000       0.00000000      11.38060295 </v>
   </varray>
   <i name="volume">   1473.99433936 </i>
   <varray name="rec_basis" >
    <v>       0.08786881       0.00000000       0.00000000 </v>
    <v>       0.00000000       0.08786881       0.00000000 </v>
    <v>       0.00000000       0.00000000       0.08786881 </v>
   </varray>
  </crystal>
  <varray name="positions" >
   <v>       0.00000000       0.00000000       0.00000000 </v>
   <v>       0.50000000       0.00000000       0.00000000 </v>
   <v>       0.00000000       0.50000000       0.00000000 </v>
   <v>       0.50000000       0.50000000       0.00000000 </v>
   <v>       0.00000000       0.00000000       0.50000000 </v>
   <v>       0.50000000       0.00000000       0.50000000 </v>
   <v>       0.00000000       0.50000000       0.50000000 </v>
   <v>       0.50000000       0.50000000       0.50000000 </v>
   <v>       0.00000000       0.25000000       0.25000000 </v>
   <v>       0.50000000       0.25000000       0.25000000 </v>
   <v>       0.00000000       0.75000000       0.25000000 </v>
   <v>       0.50000000       0.75000000       0.25000000 </v>
   <v>       0.00000000       0.25000000       0.75000000 </v>
   <v>       0.50000000       0.25000000       0.75000000 </v>
   <v>       0.00000000       0.75000000       0.75000000 </v>
   <v>       0.50000000       0.75000000       0.75000000 </v>
   <v>       0.25000000       0.00000000       0.25000000 </v>
   <v>       0.75000000       0.00000000       0.25000000 </v>
   <v>       0.25000000       0.50000000       0.25000000 </v>
   <v>       0.75000000       0.50000000       0.25000000 </v>
   <v>       0.25000000       0.00000000       0.75000000 </v>
   <v>       0.75000000       0.00000000       0.75000000 </v>
   <v>       0.25000000       0.50000000       0.75000000 </v>
   <v>       0.75000000       0.50000000       0.75000000 </v>
   <v>       0.25000000       0.25000000       0.00000000 </v>
   <v>       0.75000000       0.25000000       0.00000000 </v>
   <v>       0.25000000       0.75000000       0.00000000 </v>
   <v>       0.75000000       0.75000000       0.00000000 </v>
   <v>       0.25000000       0.25000000       0.50000000 </v>
   <v>       0.75000000       0.25000000       0.50000000 </v>
   <v>       0.25000000       0.75000000       0.50000000 </v>
   <v>       0.75000000       0.75000000       0.50000000 </v>
   <v>       0.25000000       0.25000000       0.25000000 </v>
   <v>       0.75000000       0.25000000       0.25000000 </v>
   <v>       0.25000000       0.75000000       0.25000000 </v>
   <v>       0.75000000       0.75000000       0.25000000 </v>
   <v>       0.25000000       0.25000000       0.75000000 </v>
   <v>       0.75000000       0.25000000       0.75000000 </v>
   <v>       0.25000000       0.75000000       0.75000000 </v>
   <v>       0.75000000       0.75000000       0.75000000 </v>
   <v>       0.25000000       0.00000000       0.00000000 </v>
   <v>       0.75000000       0.00000000       0.00000000 </v>
   <v>       0.25000000       0.50000000       0.00000000 </v>
   <v>       0.75000000       0.50000000       0.00000000 </v>
   <v>       0.25000000       0.00000000       0.50000000 </v>
   <v>       0.75000000       0.00000000       0.50000000 </v>
   <v>       0.25000000       0.50000000       0.50000000 </v>
   <v>       0.75000000       0.50000000       0.50000000 </v>
   <v>       0.00000000       0.25000000       0.00000000 </v>
   <v>       0.50000000       0.25000000       0.00000000 </v>
   <v>       0.00000000       0.75000000       0.00000000 </v>
   <v>       0.50000000       0.75000000       0.00000000 </v>
   <v>       0.00000000       0.25000000       0.50000000 </v>
   <v>       0.50000000       0.25000000       0.50000000 </v>
   <v>       0.00000000       0.75000000       0.50000000 </v>
   <v>       0.50000000       0.75000000       0.50000000 </v>
   <v>       0.00000000       0.00000000       0.25000000 </v>
   <v>       0.50000000       0.00000000       0.25000000 </v>
   <v>       0.00000000       0.50000000       0.25000000 </v>
   <v>       0.50000000       0.50000000       0.25000000 </v>
   <v>       0.00000000       0.00000000       0.75000000 </v>
   <v>       0.50000000       0.00000000       0.75000000 </v>
   <v>       0.00000000       0.50000000       0.75000000 </v>
   <v>       0.50000000       0.50000000       0.75000000 </v>
  </varray>
 </structure>
 <calculation>
  <scstep>
   <time name="dav">    7.52    7.56</time>
   <time name="total">    8.72    8.78</time>
   <energy>
    <i name="alphaZ">    668.86209959 </i>
    <i name="ewald"> -22516.54734859 </i>
    <i name="hartreedc">  -9185.63326179 </i>
    <i name="XCdc">   1431.91611847 </i>
    <i name="pawpsdc">  21065.31730818 </i>
    <i name="pawaedc"> -23903.28520446 </i>
    <i name="eentropy">     -0.21481369 </i>
    <i name="bandstr">  -1102.68485878 </i>
    <i name="atom">  37623.51160799 </i>
    <i name="e_fr_energy">   4081.24164692 </i>
    <i name="e_wo_entrp">   4081.45646060 </i>
    <i name="e_0_energy">   4081.34905376 </i>
   </energy>
  </scstep>
  <scstep>
   <time name="dav">    7.80    7.84</time>
   <time name="total">    7.82    7.85</time>
   <energy>
    <i name="e_fr_energy">    279.59623030 </i>
    <i name="e_wo_entrp">    279.59623030 </i>
    <i name="e_0_energy">    279.59623030 </i>
   </energy>
  </scstep>
  <scstep>
   <time name="dav">    7.79    7.83</time>
   <time name="total">    7.79    7.83</time>
   <energy>
    <i name="e_fr_energy">   -202.75205184 </i>
    <i name="e_wo_entrp">   -202.75205184 </i>
    <i name="e_0_energy">   -202.75205184 </i>
   </energy>
  </scstep>
  <scstep>
   <time name="dav">    7.86    7.91</time>
   <time name="total">    7.87    7.92</time>
   <energy>
    <i name="e_fr_energy">   -222.38813181 </i>
    <i name="e_wo_entrp">   -222.38813181 </i>
    <i name="e_0_energy">   -222.38813181 </i>
   </energy>
  </scstep>
  <scstep>
   <time name="dav">    9.55    9.59</time>
   <time name="total">   10.64   10.68</time>
   <energy>
    <i name="e_fr_energy">   -223.31639262 </i>
    <i name="e_wo_entrp">   -223.31639262 </i>
    <i name="e_0_energy">   -223.31639262 </i>
   </energy>
  </scstep>
  <scstep>
   <time name="dav">    7.66    7.69</time>
   <time name="total">   10.15   10.20</time>
   <energy>
    <i name="e_fr_energy">   -216.99573113 </i>
    <i name="e_wo_entrp">   -216.99573113 </i>
    <i name="e_0_energy">   -216.99573113 </i>
   </energy>
  </scstep>
  <scstep>
   <time name="dav">    8.03    8.06</time>
   <time name="total">   10.36   10.42</time>
   <energy>
    <i name="e_fr_energy">   -216.63159571 </i>
    <i name="e_wo_entrp">   -216.63159571 </i>
    <i name="e_0_energy">   -216.63159571 </i>
   </energy>
  </scstep>
  <scstep>
   <time name="dav">    7.43    7.46</time>
   <time name="total">    9.71    9.76</time>
   <energy>
    <i name="e_fr_energy">   -216.82024671 </i>
    <i name="e_wo_entrp">   -216.82024671 </i>
    <i name="e_0_energy">   -216.82024671 </i>
   </energy>
  </scstep>
  <scstep>
   <time name="dav">    9.03    9.07</time>
   <time name="total">   11.30   11.36</time>
   <energy>
    <i name="e_fr_energy">   -216.82410347 </i>
    <i name="e_wo_entrp">   -216.82410347 </i>
    <i name="e_0_energy">   -216.82410347 </i>
   </energy>
  </scstep>
  <scstep>
   <time name="dav">    7.73    7.75</time>
   <time name="total">   10.00   10.05</time>
   <energy>
    <i name="e_fr_energy">   -216.82818442 </i>
    <i name="e_wo_entrp">   -216.82818442 </i>
    <i name="e_0_energy">   -216.82818442 </i>
   </energy>
  </scstep>
  <scstep>
   <time name="dav">    8.61    8.64</time>
   <time name="total">   10.87   10.92</time>
   <energy>
    <i name="e_fr_energy">   -216.82828880 </i>
    <i name="e_wo_entrp">   -216.82828880 </i>
    <i name="e_0_energy">   -216.82828880 </i>
   </energy>
  </scstep>
  <scstep>
   <time name="dav">    8.60    8.64</time>
   <time name="total">   10.86   10.93</time>
   <energy>
    <i name="e_fr_energy">   -216.82829551 </i>
    <i name="e_wo_entrp">   -216.82829551 </i>
    <i name="e_0_energy">   -216.82829551 </i>
   </energy>
  </scstep>
  <scstep>
   <time name="dav">    8.32    8.35</time>
   <time name="total">   10.59   10.64</time>
   <energy>
    <i name="e_fr_energy">   -216.82829942 </i>
    <i name="e_wo_entrp">   -216.82829942 </i>
    <i name="e_0_energy">   -216.82829942 </i>
   </energy>
  </scstep>
  <scstep>
   <time name="dav">    7.86    7.88</time>
   <time name="total">   10.13   10.17</time>
   <energy>
    <i name="e_fr_energy">   -216.82829652 </i>
    <i name="e_wo_entrp">   -216.82829652 </i>
    <i name="e_0_energy">   -216.82829652 </i>
   </energy>
  </scstep>
  <scstep>
   <time name="dav">    7.42    7.45</time>
   <time name="total">    9.68    9.74</time>
   <energy>
    <i name="e_fr_energy">   -216.82829718 </i>
    <i name="e_wo_entrp">   -216.82829718 </i>
    <i name="e_0_energy">   -216.82829718 </i>
   </energy>
  </scstep>
  <scstep>
   <time name="dav">    6.46    6.49</time>
   <time name="total">    8.77    8.80</time>
   <energy>
    <i name="e_fr_energy">   -216.82829697 </i>
    <i name="e_wo_entrp">   -216.82829697 </i>
    <i name="e_0_energy">   -216.82829697 </i>
   </energy>
  </scstep>
  <scstep>
   <time name="dav">    5.89    5.91</time>
   <time name="total">    8.19    8.23</time>
   <energy>
    <i name="e_fr_energy">   -216.82829700 </i>
    <i name="e_wo_entrp">   -216.82829700 </i>
    <i name="e_0_energy">   -216.82829700 </i>
   </energy>
  </scstep>
  <scstep>
   <time name="dav">    5.74    5.77</time>
   <time name="total">    6.94    6.98</time>
   <energy>
    <i name="alphaZ">    668.86209959 </i>
    <i name="ewald"> -22516.54734859 </i>
    <i name="hartreedc">  -9309.23118947 </i>
    <i name="XCdc">   1452.87041272 </i>
    <i name="pawpsdc">  21628.01134498 </i>
    <i name="pawaedc"> -24476.46262861 </i>
    <i name="eentropy">      0.00000000 </i>
    <i name="bandstr">  -5287.84259561 </i>
    <i name="atom">  37623.51160799 </i>
    <i name="e_fr_energy">   -216.82829701 </i>
    <i name="e_wo_entrp">   -216.82829700 </i>
    <i name="e_0_energy">   -216.82829700 </i>
   </energy>
  </scstep>
  <v type="logical" name="LVDW"> F  </v>
  <structure>
   <crystal>
    <varray name="basis" >
     <v>      11.38060295       0.00000000       0.00000000 </v>
     <v>       0.00000000      11.38060295       0.00000000 </v>
     <v>       0.00000000       0.00000000      11.38060295 </v>
    </varray>
    <i name="volume">   1473.99433936 </i>
    <varray name="rec_basis" >
     <v>       0.08786881       0.00000000       0.00000000 </v>
     <v>       0.00000000       0.08786881       0.00000000 </v>
     <v>       0.00000000       0.00000000       0.08786881 </v>
    </varray>
   </crystal>
   <varray name="positions" >
    <v>       0.00000000       0.00000000       0.00000000 </v>
    <v>       0.50000000       0.00000000       0.00000000 </v>
    <v>       0.00000000       0.50000000       0.00000000 </v>
    <v>       0.50000000       0.50000000       0.00000000 </v>
    <v>       0.00000000       0.00000000       0.50000000 </v>
    <v>       0.50000000       0.00000000       0.50000000 </v>
    <v>       0.00000000       0.50000000       0.50000000 </v>
    <v>       0.50000000       0.50000000       0.50000000 </v>
    <v>       0.00000000       0.25000000       0.25000000 </v>
    <v>       0.50000000       0.25000000       0.25000000 </v>
    <v>       0.00000000       0.75000000       0.25000000 </v>
    <v>       0.50000000       0.75000000       0.25000000 </v>
    <v>       0.00000000       0.25000000       0.75000000 </v>
    <v>       0.50000000       0.25000000       0.75000000 </v>
    <v>       0.00000000       0.75000000       0.75000000 </v>
    <v>       0.50000000       0.75000000       0.75000000 </v>
    <v>       0.25000000       0.00000000       0.25000000 </v>
    <v>       0.75000000       0.00000000       0.25000000 </v>
    <v>       0.25000000       0.50000000       0.25000000 </v>
    <v>       0.75000000       0.50000000       0.25000000 </v>
    <v>       0.25000000       0.00000000       0.75000000 </v>
    <v>       0.75000000       0.00000000       0.75000000 </v>
    <v>       0.25000000       0.50000000       0.75000000 </v>
    <v>       0.75000000       0.50000000       0.75000000 </v>
    <v>       0.25000000       0.25000000       0.00000000 </v>
    <v>       0.75000000       0.25000000       0.00000000 </v>
    <v>       0.25000000       0.75000000       0.00000000 </v>
    <v>       0.75000000       0.75000000       0.00000000 </v>
    <v>       0.25000000       0.25000000       0.50000000 </v>
    <v>       0.75000000       0.25000000       0.50000000 </v>
    <v>       0.25000000       0.75000000       0.50000000 </v>
    <v>       0.75000000       0.75000000       0.50000000 </v>
    <v>       0.25000000       0.25000000       0.25000000 </v>
    <v>       0.75000000       0.25000000       0.25000000 </v>
    <v>       0.25000000       0.75000000       0.25000000 </v>
    <v>       0.75000000       0.75000000       0.25000000 </v>
    <v>       0.25000000       0.25000000       0.75000000 </v>
    <v>       0.75000000       0.25000000       0.75000000 </v>
    <v>       0.25000000       0.75000000       0.75000000 </v>
    <v>       0.75000000       0.75000000       0.75000000 </v>
    <v>       0.25000000       0.00000000       0.00000000 </v>
    <v>       0.75000000       0.00000000       0.00000000 </v>
    <v>       0.25000000       0.50000000       0.00000000 </v>
    <v>       0.75000000       0.50000000       0.00000000 </v>
    <v>       0.25000000       0.00000000       0.50000000 </v>
    <v>       0.75000000       0.00000000       0.50000000 </v>
    <v>       0.25000000       0.50000000       0.50000000 </v>
    <v>       0.75000000       0.50000000       0.50000000 </v>
    <v>       0.00000000       0.25000000       0.00000000 </v>
    <v>       0.50000000       0.25000000       0.00000000 </v>
    <v>       0.00000000       0.75000000       0.00000000 </v>
    <v>       0.50000000       0.75000000       0.00000000 </v>
    <v>       0.00000000       0.25000000       0.50000000 </v>
    <v>       0.50000000       0.25000000       0.50000000 </v>
    <v>       0.00000000       0.75000000       0.50000000 </v>
    <v>       0.50000000       0.75000000       0.50000000 </v>
    <v>       0.00000000       0.00000000       0.25000000 </v>
    <v>       0.50000000       0.00000000       0.25000000 </v>
    <v>       0.00000000       0.50000000       0.25000000 </v>
    <v>       0.50000000       0.50000000       0.25000000 </v>
    <v>       0.00000000       0.00000000       0.75000000 </v>
    <v>       0.50000000       0.00000000       0.75000000 </v>
    <v>       0.00000000       0.50000000       0.75000000 </v>
    <v>       0.50000000       0.50000000       0.75000000 </v>
   </varray>
  </structure>
  <varray name="forces" >
   <v>       0.00000000       0.00000000       0.00000000 </v>
   <v>       0.00000000       0.00000000       0.00000000 </v>
   <v>       0.00000000       0.00000000       0.00000000 </v>
   <v>       0.00000000       0.00000000       0.00000000 </v>
   <v>       0.00000000       0.00000000       0.00000000 </v>
   <v>       0.00000000       0.00000000       0.00000000 </v>
   <v>       0.00000000       0.00000000       0.00000000 </v>
   <v>       0.00000000       0.00000000       0.00000000 </v>
   <v>       0.00000000       0.00000000       0.00000000 </v>
   <v>       0.00000000       0.00000000       0.00000000 </v>
   <v>       0.00000000       0.00000000       0.00000000 </v>
   <v>       0.00000000       0.00000000       0.00000000 </v>
   <v>       0.00000000       0.00000000       0.00000000 </v>
   <v>       0.00000000       0.00000000       0.00000000 </v>
   <v>       0.00000000       0.00000000       0.00000000 </v>
   <v>       0.00000000       0.00000000       0.00000000 </v>
   <v>       0.00000000       0.00000000       0.00000000 </v>
   <v>       0.00000000       0.00000000       0.00000000 </v>
   <v>       0.00000000       0.00000000       0.00000000 </v>
   <v>       0.00000000       0.00000000       0.00000000 </v>
   <v>       0.00000000       0.00000000       0.00000000 </v>
   <v>       0.00000000       0.00000000       0.00000000 </v>
   <v>       0.00000000       0.00000000       0.00000000 </v>
   <v>       0.00000000       0.00000000       0.00000000 </v>
   <v>       0.00000000       0.00000000       0.00000000 </v>
   <v>       0.00000000       0.00000000       0.00000000 </v>
   <v>       0.00000000       0.00000000       0.00000000 </v>
   <v>       0.00000000       0.00000000       0.00000000 </v>
   <v>       0.00000000       0.00000000       0.00000000 </v>
   <v>       0.00000000       0.00000000       0.00000000 </v>
   <v>       0.00000000       0.00000000       0.00000000 </v>
   <v>       0.00000000       0.00000000       0.00000000 </v>
   <v>       0.00000000       0.00000000       0.00000000 </v>
   <v>       0.00000000       0.00000000       0.00000000 </v>
   <v>       0.00000000       0.00000000       0.00000000 </v>
   <v>       0.00000000       0.00000000       0.00000000 </v>
   <v>       0.00000000       0.00000000       0.00000000 </v>
   <v>       0.00000000       0.00000000       0.00000000 </v>
   <v>       0.00000000       0.00000000       0.00000000 </v>
   <v>       0.00000000       0.00000000       0.00000000 </v>
   <v>       0.00000000       0.00000000       0.00000000 </v>
   <v>       0.00000000       0.00000000       0.00000000 </v>
   <v>       0.00000000       0.00000000       0.00000000 </v>
   <v>       0.00000000       0.00000000       0.00000000 </v>
   <v>       0.00000000       0.00000000       0.00000000 </v>
   <v>       0.00000000       0.00000000       0.00000000 </v>
   <v>       0.00000000       0.00000000       0.00000000 </v>
   <v>       0.00000000       0.00000000       0.00000000 </v>
   <v>       0.00000000       0.00000000       0.00000000 </v>
   <v>       0.00000000       0.00000000       0.00000000 </v>
   <v>       0.00000000       0.00000000       0.00000000 </v>
   <v>       0.00000000       0.00000000       0.00000000 </v>
   <v>       0.00000000       0.00000000       0.00000000 </v>
   <v>       0.00000000       0.00000000       0.00000000 </v>
   <v>       0.00000000       0.00000000       0.00000000 </v>
   <v>       0.00000000       0.00000000       0.00000000 </v>
   <v>       0.00000000       0.00000000       0.00000000 </v>
   <v>       0.00000000       0.00000000       0.00000000 </v>
   <v>       0.00000000       0.00000000       0.00000000 </v>
   <v>       0.00000000       0.00000000       0.00000000 </v>
   <v>       0.00000000       0.00000000       0.00000000 </v>
   <v>       0.00000000       0.00000000       0.00000000 </v>
   <v>       0.00000000       0.00000000       0.00000000 </v>
   <v>       0.00000000       0.00000000       0.00000000 </v>
  </varray>
  <varray name="stress" >
   <v>      -1.65686443       0.00000000       0.00000000 </v>
   <v>       0.00000000      -1.65686443       0.00000000 </v>
   <v>       0.00000000       0.00000000      -1.65686443 </v>
  </varray>
  <energy>
   <i name="e_fr_energy">   -216.82829701 </i>
   <i name="e_wo_entrp">   -216.82829700 </i>
   <i name="e_0_energy">      0.00000000 </i>
  </energy>
  <kpoints>
   <generation param="Monkhorst-Pack">
    <v type="int" name="divisions">       2        2        2 </v>
    <v name="usershift">      0.00000000       0.00000000       0.00000000 </v>
    <v name="genvec1">      0.50000000       0.00000000       0.00000000 </v>
    <v name="genvec2">      0.00000000       0.50000000       0.00000000 </v>
    <v name="genvec3">      0.00000000       0.00000000       0.50000000 </v>
    <v name="shift">      0.50000000       0.50000000       0.50000000 </v>
   </generation>
   <varray name="kpointlist" >
    <v>       0.25000000       0.25000000       0.25000000 </v>
   </varray>
   <varray name="weights" >
    <v>       1.00000000 </v>
   </varray>
  </kpoints>
  <scstep>
   <time name="total">   10.25   10.29</time>
   <energy>
    <i name="e_fr_energy">   -323.54405774 </i>
    <i name="e_wo_entrp">   -323.54405774 </i>
    <i name="e_0_energy">   -323.54405774 </i>
   </energy>
  </scstep>
  <scstep>
   <time name="total">   13.43   13.48</time>
   <energy>
    <i name="e_fr_energy">   -342.65757876 </i>
    <i name="e_wo_entrp">   -342.65757876 </i>
    <i name="e_0_energy">   -342.65757876 </i>
   </energy>
  </scstep>
  <scstep>
   <time name="total">   14.23   14.29</time>
   <energy>
    <i name="e_fr_energy">   -343.38432099 </i>
    <i name="e_wo_entrp">   -343.38432099 </i>
    <i name="e_0_energy">   -343.38432099 </i>
   </energy>
  </scstep>
  <scstep>
   <time name="total">   15.12   15.17</time>
   <energy>
    <i name="e_fr_energy">   -343.36315011 </i>
    <i name="e_wo_entrp">   -343.36315011 </i>
    <i name="e_0_energy">   -343.36315011 </i>
   </energy>
  </scstep>
  <scstep>
   <time name="total">   15.12   15.19</time>
   <energy>
    <i name="e_fr_energy">   -343.33502848 </i>
    <i name="e_wo_entrp">   -343.33502848 </i>
    <i name="e_0_energy">   -343.33502848 </i>
   </energy>
  </scstep>
  <scstep>
   <time name="total">   15.31   15.37</time>
   <energy>
    <i name="e_fr_energy">   -343.33294852 </i>
    <i name="e_wo_entrp">   -343.33294852 </i>
    <i name="e_0_energy">   -343.33294852 </i>
   </energy>
  </scstep>
  <scstep>
   <time name="total">   15.99   16.05</time>
   <energy>
    <i name="e_fr_energy">   -343.36343891 </i>
    <i name="e_wo_entrp">   -343.36343891 </i>
    <i name="e_0_energy">   -343.36343891 </i>
   </energy>
  </scstep>
  <scstep>
   <time name="total">   16.05   16.12</time>
   <energy>
    <i name="e_fr_energy">   -343.35601878 </i>
    <i name="e_wo_entrp">   -343.35601878 </i>
    <i name="e_0_energy">   -343.35601878 </i>
   </energy>
  </scstep>
  <scstep>
   <time name="total">   16.22   16.29</time>
   <energy>
    <i name="e_fr_energy">   -343.35715297 </i>
    <i name="e_wo_entrp">   -343.35715297 </i>
    <i name="e_0_energy">   -343.35715297 </i>
   </energy>
  </scstep>
  <scstep>
   <time name="total">   15.96   16.02</time>
   <energy>
    <i name="e_fr_energy">   -343.35586259 </i>
    <i name="e_wo_entrp">   -343.35586259 </i>
    <i name="e_0_energy">   -343.35586259 </i>
   </energy>
  </scstep>
  <scstep>
   <time name="total">   16.23   16.30</time>
   <energy>
    <i name="e_fr_energy">   -343.35510259 </i>
    <i name="e_wo_entrp">   -343.35510259 </i>
    <i name="e_0_energy">   -343.35510259 </i>
   </energy>
  </scstep>
  <kpoints>
   <generation param="Monkhorst-Pack">
    <v type="int" name="divisions">       2        2        2 </v>
    <v name="usershift">      0.00000000       0.00000000       0.00000000 </v>
    <v name="genvec1">      0.50000000       0.00000000       0.00000000 </v>
    <v name="genvec2">      0.00000000       0.50000000       0.00000000 </v>
    <v name="genvec3">      0.00000000       0.00000000       0.50000000 </v>
    <v name="shift">      0.50000000       0.50000000       0.50000000 </v>
   </generation>
   <varray name="kpointlist" >
    <v>       0.25000000       0.25000000       0.25000000 </v>
    <v>      -0.25000000       0.25000000       0.25000000 </v>
    <v>       0.25000000      -0.25000000       0.25000000 </v>
   </varray>
   <varray name="weights" >
    <v>       0.25000000 </v>
    <v>       0.25000000 </v>
    <v>       0.50000000 </v>
   </varray>
  </kpoints>
  <scstep>
   <time name="total">   32.70   32.84</time>
   <energy>
    <i name="e_fr_energy">   -419.26333699 </i>
    <i name="e_wo_entrp">   -419.26333699 </i>
    <i name="e_0_energy">   -419.26333699 </i>
   </energy>
  </scstep>
  <scstep>
   <time name="total">   32.47   32.60</time>
   <energy>
    <i name="e_fr_energy">   -419.80739790 </i>
    <i name="e_wo_entrp">   -419.80739790 </i>
    <i name="e_0_energy">   -419.80739790 </i>
   </energy>
  </scstep>
  <scstep>
   <time name="total">   32.48   32.60</time>
   <energy>
    <i name="e_fr_energy">   -417.98253258 </i>
    <i name="e_wo_entrp">   -417.98253258 </i>
    <i name="e_0_energy">   -417.98253258 </i>
   </energy>
  </scstep>
  <scstep>
   <time name="total">   34.52   34.66</time>
   <energy>
    <i name="e_fr_energy">   -416.73287905 </i>
    <i name="e_wo_entrp">   -416.73287905 </i>
    <i name="e_0_energy">   -416.73287905 </i>
   </energy>
  </scstep>
  <scstep>
   <time name="total">   37.49   37.63</time>
   <energy>
    <i name="e_fr_energy">   -417.27752848 </i>
    <i name="e_wo_entrp">   -417.27752848 </i>
    <i name="e_0_energy">   -417.27752848 </i>
   </energy>
  </scstep>
  <scstep>
   <time name="total">   38.62   38.78</time>
   <energy>
    <i name="e_fr_energy">   -417.36600124 </i>
    <i name="e_wo_entrp">   -417.36600124 </i>
    <i name="e_0_energy">   -417.36600124 </i>
   </energy>
  </scstep>
  <scstep>
   <time name="total">   39.02   39.18</time>
   <energy>
    <i name="e_fr_energy">   -417.34292293 </i>
    <i name="e_wo_entrp">   -417.34292293 </i>
    <i name="e_0_energy">   -417.34292293 </i>
   </energy>
  </scstep>
  <scstep>
   <time name="total">   39.24   39.39</time>
   <energy>
    <i name="e_fr_energy">   -417.17226849 </i>
    <i name="e_wo_entrp">   -417.17226849 </i>
    <i name="e_0_energy">   -417.17226849 </i>
   </energy>
  </scstep>
  <scstep>
   <time name="total">   39.18   39.34</time>
   <energy>
    <i name="e_fr_energy">   -417.33854671 </i>
    <i name="e_wo_entrp">   -417.33854671 </i>
    <i name="e_0_energy">   -417.33854671 </i>
   </energy>
  </scstep>
  <scstep>
   <time name="total">   39.35   39.50</time>
   <energy>
    <i name="e_fr_energy">   -417.23755617 </i>
    <i name="e_wo_entrp">   -417.23755617 </i>
    <i name="e_0_energy">   -417.23755617 </i>
   </energy>
  </scstep>
  <kpoints>
   <generation param="Monkhorst-Pack">
    <v type="int" name="divisions">       2        2        2 </v>
    <v name="usershift">      0.00000000       0.00000000       0.00000000 </v>
    <v name="genvec1">      0.50000000       0.00000000       0.00000000 </v>
    <v name="genvec2">      0.00000000       0.50000000       0.00000000 </v>
    <v name="genvec3">      0.00000000       0.00000000       0.50000000 </v>
    <v name="shift">      0.50000000       0.50000000       0.50000000 </v>
   </generation>
   <varray name="kpointlist" >
    <v>       0.25000000       0.25000000       0.25000000 </v>
   </varray>
   <varray name="weights" >
    <v>       1.00000000 </v>
   </varray>
  </kpoints>
  <dynmat>
   <varray name="hessian" >
    <v>      -0.08018122       0.00000000       0.00000000       0.01325287       0.00000000       0.00000000      -0.00020107       0.00000000       0.00000000       0.00053431       0.00000000       0.00000000      -0.00020107       0.00000000       0.00000000       0.00053431       0.00000000       0.00000000      -0.00067307       0.00000000       0.00000000       0.00063790       0.00000000       0.00000000      -0.00243750       0.00000000       0.00000000       0.00168265       0.00000000       0.00000000      -0.00243750       0.00000000       0.00000000       0.00168265       0.00000000       0.00000000      -0.00243750       0.00000000       0.00000000       0.00168265       0.00000000       0.00000000      -0.00243750       0.00000000       0.00000000       0.00168265       0.00000000       0.00000000       0.00213856       0.00000000       0.00825848       0.00213856       0.00000000      -0.00825848      -0.00003968       0.00000000      -0.00007738      -0.00003968       0.00000000       0.00007738       0.00213856       0.00000000      -0.00825848       0.00213856       0.00000000       0.00825848      -0.00003968       0.00000000       0.00007738      -0.00003968       0.00000000      -0.00007738       0.00213856       0.00825848       0.00000000       0.00213856      -0.00825848       0.00000000       0.00213856      -0.00825848       0.00000000       0.00213856       0.00825848       0.00000000      -0.00003968      -0.00007738       0.00000000      -0.00003968       0.00007738       0.00000000      -0.00003968       0.00007738       0.00000000      -0.00003968      -0.00007738       0.00000000      -0.00026792      -0.00147573      -0.00147573      -0.00026792       0.00147573       0.00147573      -0.00026792       0.00147573      -0.00147573      -0.00026792      -0.00147573       0.00147573      -0.00026792      -0.00147573       0.00147573      -0.00026792       0.00147573      -0.00147573      -0.00026792       0.00147573       0.00147573      -0.00026792      -0.00147573      -0.00147573       0.01641687       0.00000000       0.00000000       0.01641687       0.00000000       0.00000000       0.00014853       0.00000000       0.00000000       0.00014853       0.00000000       0.00000000       0.00014853       0.00000000       0.00000000       0.00014853       0.00000000       0.00000000       0.00000291       0.00000000       0.00000000       0.00000291       0.00000000       0.00000000       0.00621429       0.00000000       0.00000000      -0.00326756       0.00000000       0.00000000       0.00621429       0.00000000       0.00000000      -0.00326756       0.00000000       0.00000000       0.00072147       0.00000000       0.00000000      -0.00078151       0.00000000       0.00000000       0.00072147       0.00000000       0.00000000      -0.00078151       0.00000000       0.00000000       0.00621429       0.00000000       0.00000000      -0.00326756       0.00000000       0.00000000       0.00072147       0.00000000       0.00000000      -0.00078151       0.00000000       0.00000000       0.00621429       0.00000000       0.00000000      -0.00326756       0.00000000       0.00000000       0.00072147       0.00000000       0.00000000      -0.00078151       0.00000000       0.00000000 </v>
    <v>       0.00000000      -0.08018122       0.00000000       0.00000000      -0.00020107       0.00000000       0.00000000       0.01325287       0.00000000       0.00000000       0.00053431       0.00000000       0.00000000      -0.00020107       0.00000000       0.00000000      -0.00067307       0.00000000       0.00000000       0.00053431       0.00000000       0.00000000       0.00063790       0.00000000       0.00000000       0.00213856       0.00825848       0.00000000      -0.00003968      -0.00007738       0.00000000       0.00213856      -0.00825848       0.00000000      -0.00003968       0.00007738       0.00000000       0.00213856      -0.00825848       0.00000000      -0.00003968       0.00007738       0.00000000       0.00213856       0.00825848       0.00000000      -0.00003968      -0.00007738       0.00000000      -0.00243750       0.00000000       0.00000000      -0.00243750       0.00000000       0.00000000       0.00168265       0.00000000       0.00000000       0.00168265       0.00000000       0.00000000      -0.00243750       0.00000000       0.00000000      -0.00243750       0.00000000       0.00000000       0.00168265       0.00000000       0.00000000       0.00168265       0.00000000       0.00825848       0.00213856       0.00000000      -0.00825848       0.00213856       0.00000000      -0.00825848       0.00213856       0.00000000       0.00825848       0.00213856       0.00000000      -0.00007738      -0.00003968       0.00000000       0.00007738      -0.00003968       0.00000000       0.00007738      -0.00003968       0.00000000      -0.00007738      -0.00003968       0.00000000      -0.00147573      -0.00026792      -0.00147573       0.00147573      -0.00026792      -0.00147573       0.00147573      -0.00026792       0.00147573      -0.00147573      -0.00026792       0.00147573      -0.00147573      -0.00026792       0.00147573       0.00147573      -0.00026792       0.00147573       0.00147573      -0.00026792      -0.00147573      -0.00147573      -0.00026792      -0.00147573       0.00000000       0.00621429       0.00000000       0.00000000       0.00621429       0.00000000       0.00000000      -0.00326756       0.00000000       0.00000000      -0.00326756       0.00000000       0.00000000       0.00072147       0.00000000       0.00000000       0.00072147       0.00000000       0.00000000      -0.00078151       0.00000000       0.00000000      -0.00078151       0.00000000       0.00000000       0.01641687       0.00000000       0.00000000       0.00014853       0.00000000       0.00000000       0.01641687       0.00000000       0.00000000       0.00014853       0.00000000       0.00000000       0.00014853       0.00000000       0.00000000       0.00000291       0.00000000       0.00000000       0.00014853       0.00000000       0.00000000       0.00000291       0.00000000       0.00000000       0.00621429       0.00000000       0.00000000       0.00072147       0.00000000       0.00000000      -0.00326756       0.00000000       0.00000000      -0.00078151       0.00000000       0.00000000       0.00621429       0.00000000       0.00000000       0.00072147       0.00000000       0.00000000      -0.00326756       0.00000000       0.00000000      -0.00078151       0.00000000 </v>
    <v>       0.00000000       0.00000000      -0.08018122       0.00000000       0.00000000      -0.00020107       0.00000000       0.00000000      -0.00020107       0.00000000       0.00000000      -0.00067307       0.00000000       0.00000000       0.01325287       0.00000000       0.00000000       0.00053431       0.00000000       0.00000000       0.00053431       0.00000000       0.00000000       0.00063790       0.00000000       0.00825848       0.00213856       0.00000000      -0.00007738      -0.00003968       0.00000000      -0.00825848       0.00213856       0.00000000       0.00007738      -0.00003968       0.00000000      -0.00825848       0.00213856       0.00000000       0.00007738      -0.00003968       0.00000000       0.00825848       0.00213856       0.00000000      -0.00007738      -0.00003968       0.00825848       0.00000000       0.00213856      -0.00825848       0.00000000       0.00213856      -0.00007738       0.00000000      -0.00003968       0.00007738       0.00000000      -0.00003968      -0.00825848       0.00000000       0.00213856       0.00825848       0.00000000       0.00213856       0.00007738       0.00000000      -0.00003968      -0.00007738       0.00000000      -0.00003968       0.00000000       0.00000000      -0.00243750       0.00000000       0.00000000      -0.00243750       0.00000000       0.00000000      -0.00243750       0.00000000       0.00000000      -0.00243750       0.00000000       0.00000000       0.00168265       0.00000000       0.00000000       0.00168265       0.00000000       0.00000000       0.00168265       0.00000000       0.00000000       0.00168265      -0.00147573      -0.00147573      -0.00026792       0.00147573      -0.00147573      -0.00026792      -0.00147573       0.00147573      -0.00026792       0.00147573       0.00147573      -0.00026792       0.00147573       0.00147573      -0.00026792      -0.00147573       0.00147573      -0.00026792       0.00147573      -0.00147573      -0.00026792      -0.00147573      -0.00147573      -0.00026792       0.00000000       0.00000000       0.00621429       0.00000000       0.00000000       0.00621429       0.00000000       0.00000000       0.00072147       0.00000000       0.00000000       0.00072147       0.00000000       0.00000000      -0.00326756       0.00000000       0.00000000      -0.00326756       0.00000000       0.00000000      -0.00078151       0.00000000       0.00000000      -0.00078151       0.00000000       0.00000000       0.00621429       0.00000000       0.00000000       0.00072147       0.00000000       0.00000000       0.00621429       0.00000000       0.00000000       0.00072147       0.00000000       0.00000000      -0.00326756       0.00000000       0.00000000      -0.00078151       0.00000000       0.00000000      -0.00326756       0.00000000       0.00000000      -0.00078151       0.00000000       0.00000000       0.01641687       0.00000000       0.00000000       0.00014853       0.00000000       0.00000000       0.00014853       0.00000000       0.00000000       0.00000291       0.00000000       0.00000000       0.01641687       0.00000000       0.00000000       0.00014853       0.00000000       0.00000000       0.00014853       0.00000000       0.00000000       0.00000291 </v>
    <v>       0.01325287       0.00000000       0.00000000      -0.08018122       0.00000000       0.00000000       0.00053431       0.00000000       0.00000000      -0.00020107       0.00000000       0.00000000       0.00053431       0.00000000       0.00000000      -0.00020107       0.00000000       0.00000000       0.00063790       0.00000000       0.00000000      -0.00067307       0.00000000       0.00000000       0.00168265       0.00000000       0.00000000      -0.00243750       0.00000000       0.00000000       0.00168265       0.00000000       0.00000000      -0.00243750       0.00000000       0.00000000       0.00168265       0.00000000       0.00000000      -0.00243750       0.00000000       0.00000000       0.00168265       0.00000000       0.00000000      -0.00243750       0.00000000       0.00000000       0.00213856       0.00000000      -0.00825848       0.00213856       0.00000000       0.00825848      -0.00003968       0.00000000       0.00007738      -0.00003968       0.00000000      -0.00007738       0.00213856       0.00000000       0.00825848       0.00213856       0.00000000      -0.00825848      -0.00003968       0.00000000      -0.00007738      -0.00003968       0.00000000       0.00007738       0.00213856      -0.00825848       0.00000000       0.00213856       0.00825848       0.00000000       0.00213856       0.00825848       0.00000000       0.00213856      -0.00825848       0.00000000      -0.00003968       0.00007738       0.00000000      -0.00003968      -0.00007738       0.00000000      -0.00003968      -0.00007738       0.00000000      -0.00003968       0.00007738       0.00000000      -0.00026792       0.00147573       0.00147573      -0.00026792      -0.00147573      -0.00147573      -0.00026792      -0.00147573       0.00147573      -0.00026792       0.00147573      -0.00147573      -0.00026792       0.00147573      -0.00147573      -0.00026792      -0.00147573       0.00147573      -0.00026792      -0.00147573      -0.00147573      -0.00026792       0.00147573       0.00147573       0.01641687       0.00000000       0.00000000       0.01641687       0.00000000       0.00000000       0.00014853       0.00000000       0.00000000       0.00014853       0.00000000       0.00000000       0.00014853       0.00000000       0.00000000       0.00014853       0.00000000       0.00000000       0.00000291       0.00000000       0.00000000       0.00000291       0.00000000       0.00000000      -0.00326756       0.00000000       0.00000000       0.00621429       0.00000000       0.00000000      -0.00326756       0.00000000       0.00000000       0.00621429       0.00000000       0.00000000      -0.00078151       0.00000000       0.00000000       0.00072147       0.00000000       0.00000000      -0.00078151       0.00000000       0.00000000       0.00072147       0.00000000       0.00000000      -0.00326756       0.00000000       0.00000000       0.00621429       0.00000000       0.00000000      -0.00078151       0.00000000       0.00000000       0.00072147       0.00000000       0.00000000      -0.00326756       0.00000000       0.00000000       0.00621429       0.00000000       0.00000000      -0.00078151       0.00000000       0.00000000       0.00072147       0.00000000       0.00000000 </v>
    <v>       0.00000000      -0.00020107       0.00000000       0.00000000      -0.08018122       0.00000000       0.00000000       0.00053431       0.00000000       0.00000000       0.01325287       0.00000000       0.00000000      -0.00067307       0.00000000       0.00000000      -0.00020107       0.00000000       0.00000000       0.00063790       0.00000000       0.00000000       0.00053431       0.00000000       0.00000000      -0.00003968      -0.00007738       0.00000000       0.00213856       0.00825848       0.00000000      -0.00003968       0.00007738       0.00000000       0.00213856      -0.00825848       0.00000000      -0.00003968       0.00007738       0.00000000       0.00213856      -0.00825848       0.00000000      -0.00003968      -0.00007738       0.00000000       0.00213856       0.00825848       0.00000000      -0.00243750       0.00000000       0.00000000      -0.00243750       0.00000000       0.00000000       0.00168265       0.00000000       0.00000000       0.00168265       0.00000000       0.00000000      -0.00243750       0.00000000       0.00000000      -0.00243750       0.00000000       0.00000000       0.00168265       0.00000000       0.00000000       0.00168265       0.00000000      -0.00825848       0.00213856       0.00000000       0.00825848       0.00213856       0.00000000       0.00825848       0.00213856       0.00000000      -0.00825848       0.00213856       0.00000000       0.00007738      -0.00003968       0.00000000      -0.00007738      -0.00003968       0.00000000      -0.00007738      -0.00003968       0.00000000       0.00007738      -0.00003968       0.00000000       0.00147573      -0.00026792      -0.00147573      -0.00147573      -0.00026792      -0.00147573      -0.00147573      -0.00026792       0.00147573       0.00147573      -0.00026792       0.00147573       0.00147573      -0.00026792       0.00147573      -0.00147573      -0.00026792       0.00147573      -0.00147573      -0.00026792      -0.00147573       0.00147573      -0.00026792      -0.00147573       0.00000000       0.00621429       0.00000000       0.00000000       0.00621429       0.00000000       0.00000000      -0.00326756       0.00000000       0.00000000      -0.00326756       0.00000000       0.00000000       0.00072147       0.00000000       0.00000000       0.00072147       0.00000000       0.00000000      -0.00078151       0.00000000       0.00000000      -0.00078151       0.00000000       0.00000000       0.00014853       0.00000000       0.00000000       0.01641687       0.00000000       0.00000000       0.00014853       0.00000000       0.00000000       0.01641687       0.00000000       0.00000000       0.00000291       0.00000000       0.00000000       0.00014853       0.00000000       0.00000000       0.00000291       0.00000000       0.00000000       0.00014853       0.00000000       0.00000000       0.00072147       0.00000000       0.00000000       0.00621429       0.00000000       0.00000000      -0.00078151       0.00000000       0.00000000      -0.00326756       0.00000000       0.00000000       0.00072147       0.00000000       0.00000000       0.00621429       0.00000000       0.00000000      -0.00078151       0.00000000       0.00000000      -0.00326756       0.00000000 </v>
    <v>       0.00000000       0.00000000      -0.00020107       0.00000000       0.00000000      -0.08018122       0.00000000       0.00000000      -0.00067307       0.00000000       0.00000000      -0.00020107       0.00000000       0.00000000       0.00053431       0.00000000       0.00000000       0.01325287       0.00000000       0.00000000       0.00063790       0.00000000       0.00000000       0.00053431       0.00000000      -0.00007738      -0.00003968       0.00000000       0.00825848       0.00213856       0.00000000       0.00007738      -0.00003968       0.00000000      -0.00825848       0.00213856       0.00000000       0.00007738      -0.00003968       0.00000000      -0.00825848       0.00213856       0.00000000      -0.00007738      -0.00003968       0.00000000       0.00825848       0.00213856      -0.00825848       0.00000000       0.00213856       0.00825848       0.00000000       0.00213856       0.00007738       0.00000000      -0.00003968      -0.00007738       0.00000000      -0.00003968       0.00825848       0.00000000       0.00213856      -0.00825848       0.00000000       0.00213856      -0.00007738       0.00000000      -0.00003968       0.00007738       0.00000000      -0.00003968       0.00000000       0.00000000      -0.00243750       0.00000000       0.00000000      -0.00243750       0.00000000       0.00000000      -0.00243750       0.00000000       0.00000000      -0.00243750       0.00000000       0.00000000       0.00168265       0.00000000       0.00000000       0.00168265       0.00000000       0.00000000       0.00168265       0.00000000       0.00000000       0.00168265       0.00147573      -0.00147573      -0.00026792      -0.00147573      -0.00147573      -0.00026792       0.00147573       0.00147573      -0.00026792      -0.00147573       0.00147573      -0.00026792      -0.00147573       0.00147573      -0.00026792       0.00147573       0.00147573      -0.00026792      -0.00147573      -0.00147573      -0.00026792       0.00147573      -0.00147573      -0.00026792       0.00000000       0.00000000       0.00621429       0.00000000       0.00000000       0.00621429       0.00000000       0.00000000       0.00072147       0.00000000       0.00000000       0.00072147       0.00000000       0.00000000      -0.00326756       0.00000000       0.00000000      -0.00326756       0.00000000       0.00000000      -0.00078151       0.00000000       0.00000000      -0.00078151       0.00000000       0.00000000       0.00072147       0.00000000       0.00000000       0.00621429       0.00000000       0.00000000       0.00072147       0.00000000       0.00000000       0.00621429       0.00000000       0.00000000      -0.00078151       0.00000000       0.00000000      -0.00326756       0.00000000       0.00000000      -0.00078151       0.00000000       0.00000000      -0.00326756       0.00000000       0.00000000       0.00014853       0.00000000       0.00000000       0.01641687       0.00000000       0.00000000       0.00000291       0.00000000       0.00000000       0.00014853       0.00000000       0.00000000       0.00014853       0.00000000       0.00000000       0.01641687       0.00000000       0.00000000       0.00000291       0.00000000       0.00000000       0.00014853 </v>
    <v>      -0.00020107       0.00000000       0.00000000       0.00053431       0.00000000       0.00000000      -0.08018122       0.00000000       0.00000000       0.01325287       0.00000000       0.00000000      -0.00067307       0.00000000       0.00000000       0.00063790       0.00000000       0.00000000      -0.00020107       0.00000000       0.00000000       0.00053431       0.00000000       0.00000000      -0.00243750       0.00000000       0.00000000       0.00168265       0.00000000       0.00000000      -0.00243750       0.00000000       0.00000000       0.00168265       0.00000000       0.00000000      -0.00243750       0.00000000       0.00000000       0.00168265       0.00000000       0.00000000      -0.00243750       0.00000000       0.00000000       0.00168265       0.00000000       0.00000000      -0.00003968       0.00000000      -0.00007738      -0.00003968       0.00000000       0.00007738       0.00213856       0.00000000       0.00825848       0.00213856       0.00000000      -0.00825848      -0.00003968       0.00000000       0.00007738      -0.00003968       0.00000000      -0.00007738       0.00213856       0.00000000      -0.00825848       0.00213856       0.00000000       0.00825848       0.00213856      -0.00825848       0.00000000       0.00213856       0.00825848       0.00000000       0.00213856       0.00825848       0.00000000       0.00213856      -0.00825848       0.00000000      -0.00003968       0.00007738       0.00000000      -0.00003968      -0.00007738       0.00000000      -0.00003968      -0.00007738       0.00000000      -0.00003968       0.00007738       0.00000000      -0.00026792       0.00147573      -0.00147573      -0.00026792      -0.00147573       0.00147573      -0.00026792      -0.00147573      -0.00147573      -0.00026792       0.00147573       0.00147573      -0.00026792       0.00147573       0.00147573      -0.00026792      -0.00147573      -0.00147573      -0.00026792      -0.00147573       0.00147573      -0.00026792       0.00147573      -0.00147573       0.00014853       0.00000000       0.00000000       0.00014853       0.00000000       0.00000000       0.01641687       0.00000000       0.00000000       0.01641687       0.00000000       0.00000000       0.00000291       0.00000000       0.00000000       0.00000291       0.00000000       0.00000000       0.00014853       0.00000000       0.00000000       0.00014853       0.00000000       0.00000000       0.00621429       0.00000000       0.00000000      -0.00326756       0.00000000       0.00000000       0.00621429       0.00000000       0.00000000      -0.00326756       0.00000000       0.00000000       0.00072147       0.00000000       0.00000000      -0.00078151       0.00000000       0.00000000       0.00072147       0.00000000       0.00000000      -0.00078151       0.00000000       0.00000000       0.00072147       0.00000000       0.00000000      -0.00078151       0.00000000       0.00000000       0.00621429       0.00000000       0.00000000      -0.00326756       0.00000000       0.00000000       0.00072147       0.00000000       0.00000000      -0.00078151       0.00000000       0.00000000       0.00621429       0.00000000       0.00000000      -0.00326756       0.00000000       0.00000000 </v>
    <v>       0.00000000       0.01325287       0.00000000       0.00000000       0.00053431       0.00000000       0.00000000      -0.08018122       0.00000000       0.00000000      -0.00020107       0.00000000       0.00000000       0.00053431       0.00000000       0.00000000       0.00063790       0.00000000       0.00000000      -0.00020107       0.00000000       0.00000000      -0.00067307       0.00000000       0.00000000       0.00213856      -0.00825848       0.00000000      -0.00003968       0.00007738       0.00000000       0.00213856       0.00825848       0.00000000      -0.00003968      -0.00007738       0.00000000       0.00213856       0.00825848       0.00000000      -0.00003968      -0.00007738       0.00000000       0.00213856      -0.00825848       0.00000000      -0.00003968       0.00007738       0.00000000       0.00168265       0.00000000       0.00000000       0.00168265       0.00000000       0.00000000      -0.00243750       0.00000000       0.00000000      -0.00243750       0.00000000       0.00000000       0.00168265       0.00000000       0.00000000       0.00168265       0.00000000       0.00000000      -0.00243750       0.00000000       0.00000000      -0.00243750       0.00000000      -0.00825848       0.00213856       0.00000000       0.00825848       0.00213856       0.00000000       0.00825848       0.00213856       0.00000000      -0.00825848       0.00213856       0.00000000       0.00007738      -0.00003968       0.00000000      -0.00007738      -0.00003968       0.00000000      -0.00007738      -0.00003968       0.00000000       0.00007738      -0.00003968       0.00000000       0.00147573      -0.00026792       0.00147573      -0.00147573      -0.00026792       0.00147573      -0.00147573      -0.00026792      -0.00147573       0.00147573      -0.00026792      -0.00147573       0.00147573      -0.00026792      -0.00147573      -0.00147573      -0.00026792      -0.00147573      -0.00147573      -0.00026792       0.00147573       0.00147573      -0.00026792       0.00147573       0.00000000      -0.00326756       0.00000000       0.00000000      -0.00326756       0.00000000       0.00000000       0.00621429       0.00000000       0.00000000       0.00621429       0.00000000       0.00000000      -0.00078151       0.00000000       0.00000000      -0.00078151       0.00000000       0.00000000       0.00072147       0.00000000       0.00000000       0.00072147       0.00000000       0.00000000       0.01641687       0.00000000       0.00000000       0.00014853       0.00000000       0.00000000       0.01641687       0.00000000       0.00000000       0.00014853       0.00000000       0.00000000       0.00014853       0.00000000       0.00000000       0.00000291       0.00000000       0.00000000       0.00014853       0.00000000       0.00000000       0.00000291       0.00000000       0.00000000      -0.00326756       0.00000000       0.00000000      -0.00078151       0.00000000       0.00000000       0.00621429       0.00000000       0.00000000       0.00072147       0.00000000       0.00000000      -0.00326756       0.00000000       0.00000000      -0.00078151       0.00000000       0.00000000       0.00621429       0.00000000       0.00000000       0.00072147       0.00000000 </v>
    <v>       0.00000000       0.00000000      -0.00020107       0.00000000       0.00000000      -0.00067307       0.00000000       0.00000000      -0.08018122       0.00000000       0.00000000      -0.00020107       0.00000000       0.00000000       0.00053431       0.00000000       0.00000000       0.00063790       0.00000000       0.00000000       0.01325287       0.00000000       0.00000000       0.00053431       0.00000000      -0.00825848       0.00213856       0.00000000       0.00007738      -0.00003968       0.00000000       0.00825848       0.00213856       0.00000000      -0.00007738      -0.00003968       0.00000000       0.00825848       0.00213856       0.00000000      -0.00007738      -0.00003968       0.00000000      -0.00825848       0.00213856       0.00000000       0.00007738      -0.00003968      -0.00007738       0.00000000      -0.00003968       0.00007738       0.00000000      -0.00003968       0.00825848       0.00000000       0.00213856      -0.00825848       0.00000000       0.00213856       0.00007738       0.00000000      -0.00003968      -0.00007738       0.00000000      -0.00003968      -0.00825848       0.00000000       0.00213856       0.00825848       0.00000000       0.00213856       0.00000000       0.00000000      -0.00243750       0.00000000       0.00000000      -0.00243750       0.00000000       0.00000000      -0.00243750       0.00000000       0.00000000      -0.00243750       0.00000000       0.00000000       0.00168265       0.00000000       0.00000000       0.00168265       0.00000000       0.00000000       0.00168265       0.00000000       0.00000000       0.00168265      -0.00147573       0.00147573      -0.00026792       0.00147573       0.00147573      -0.00026792      -0.00147573      -0.00147573      -0.00026792       0.00147573      -0.00147573      -0.00026792       0.00147573      -0.00147573      -0.00026792      -0.00147573      -0.00147573      -0.00026792       0.00147573       0.00147573      -0.00026792      -0.00147573       0.00147573      -0.00026792       0.00000000       0.00000000       0.00072147       0.00000000       0.00000000       0.00072147       0.00000000       0.00000000       0.00621429       0.00000000       0.00000000       0.00621429       0.00000000       0.00000000      -0.00078151       0.00000000       0.00000000      -0.00078151       0.00000000       0.00000000      -0.00326756       0.00000000       0.00000000      -0.00326756       0.00000000       0.00000000       0.00621429       0.00000000       0.00000000       0.00072147       0.00000000       0.00000000       0.00621429       0.00000000       0.00000000       0.00072147       0.00000000       0.00000000      -0.00326756       0.00000000       0.00000000      -0.00078151       0.00000000       0.00000000      -0.00326756       0.00000000       0.00000000      -0.00078151       0.00000000       0.00000000       0.00014853       0.00000000       0.00000000       0.00000291       0.00000000       0.00000000       0.01641687       0.00000000       0.00000000       0.00014853       0.00000000       0.00000000       0.00014853       0.00000000       0.00000000       0.00000291       0.00000000       0.00000000       0.01641687       0.00000000       0.00000000       0.00014853 </v>
    <v>       0.00053431       0.00000000       0.00000000      -0.00020107       0.00000000       0.00000000       0.01325287       0.00000000       0.00000000      -0.08018122       0.00000000       0.00000000       0.00063790       0.00000000       0.00000000      -0.00067307       0.00000000       0.00000000       0.00053431       0.00000000       0.00000000      -0.00020107       0.00000000       0.00000000       0.00168265       0.00000000       0.00000000      -0.00243750       0.00000000       0.00000000       0.00168265       0.00000000       0.00000000      -0.00243750       0.00000000       0.00000000       0.00168265       0.00000000       0.00000000      -0.00243750       0.00000000       0.00000000       0.00168265       0.00000000       0.00000000      -0.00243750       0.00000000       0.00000000      -0.00003968       0.00000000       0.00007738      -0.00003968       0.00000000      -0.00007738       0.00213856       0.00000000      -0.00825848       0.00213856       0.00000000       0.00825848      -0.00003968       0.00000000      -0.00007738      -0.00003968       0.00000000       0.00007738       0.00213856       0.00000000       0.00825848       0.00213856       0.00000000      -0.00825848       0.00213856       0.00825848       0.00000000       0.00213856      -0.00825848       0.00000000       0.00213856      -0.00825848       0.00000000       0.00213856       0.00825848       0.00000000      -0.00003968      -0.00007738       0.00000000      -0.00003968       0.00007738       0.00000000      -0.00003968       0.00007738       0.00000000      -0.00003968      -0.00007738       0.00000000      -0.00026792      -0.00147573       0.00147573      -0.00026792       0.00147573      -0.00147573      -0.00026792       0.00147573       0.00147573      -0.00026792      -0.00147573      -0.00147573      -0.00026792      -0.00147573      -0.00147573      -0.00026792       0.00147573       0.00147573      -0.00026792       0.00147573      -0.00147573      -0.00026792      -0.00147573       0.00147573       0.00014853       0.00000000       0.00000000       0.00014853       0.00000000       0.00000000       0.01641687       0.00000000       0.00000000       0.01641687       0.00000000       0.00000000       0.00000291       0.00000000       0.00000000       0.00000291       0.00000000       0.00000000       0.00014853       0.00000000       0.00000000       0.00014853       0.00000000       0.00000000      -0.00326756       0.00000000       0.00000000       0.00621429       0.00000000       0.00000000      -0.00326756       0.00000000       0.00000000       0.00621429       0.00000000       0.00000000      -0.00078151       0.00000000       0.00000000       0.00072147       0.00000000       0.00000000      -0.00078151       0.00000000       0.00000000       0.00072147       0.00000000       0.00000000      -0.00078151       0.00000000       0.00000000       0.00072147       0.00000000       0.00000000      -0.00326756       0.00000000       0.00000000       0.00621429       0.00000000       0.00000000      -0.00078151       0.00000000       0.00000000       0.00072147       0.00000000       0.00000000      -0.00326756       0.00000000       0.00000000       0.00621429       0.00000000       0.00000000 </v>
    <v>       0.00000000       0.00053431       0.00000000       0.00000000       0.01325287       0.00000000       0.00000000      -0.00020107       0.00000000       0.00000000      -0.08018122       0.00000000       0.00000000       0.00063790       0.00000000       0.00000000       0.00053431       0.00000000       0.00000000      -0.00067307       0.00000000       0.00000000      -0.00020107       0.00000000       0.00000000      -0.00003968       0.00007738       0.00000000       0.00213856      -0.00825848       0.00000000      -0.00003968      -0.00007738       0.00000000       0.00213856       0.00825848       0.00000000      -0.00003968      -0.00007738       0.00000000       0.00213856       0.00825848       0.00000000      -0.00003968       0.00007738       0.00000000       0.00213856      -0.00825848       0.00000000       0.00168265       0.00000000       0.00000000       0.00168265       0.00000000       0.00000000      -0.00243750       0.00000000       0.00000000      -0.00243750       0.00000000       0.00000000       0.00168265       0.00000000       0.00000000       0.00168265       0.00000000       0.00000000      -0.00243750       0.00000000       0.00000000      -0.00243750       0.00000000       0.00825848       0.00213856       0.00000000      -0.00825848       0.00213856       0.00000000      -0.00825848       0.00213856       0.00000000       0.00825848       0.00213856       0.00000000      -0.00007738      -0.00003968       0.00000000       0.00007738      -0.00003968       0.00000000       0.00007738      -0.00003968       0.00000000      -0.00007738      -0.00003968       0.00000000      -0.00147573      -0.00026792       0.00147573       0.00147573      -0.00026792       0.00147573       0.00147573      -0.00026792      -0.00147573      -0.00147573      -0.00026792      -0.00147573      -0.00147573      -0.00026792      -0.00147573       0.00147573      -0.00026792      -0.00147573       0.00147573      -0.00026792       0.00147573      -0.00147573      -0.00026792       0.00147573       0.00000000      -0.00326756       0.00000000       0.00000000      -0.00326756       0.00000000       0.00000000       0.00621429       0.00000000       0.00000000       0.00621429       0.00000000       0.00000000      -0.00078151       0.00000000       0.00000000      -0.00078151       0.00000000       0.00000000       0.00072147       0.00000000       0.00000000       0.00072147       0.00000000       0.00000000       0.00014853       0.00000000       0.00000000       0.01641687       0.00000000       0.00000000       0.00014853       0.00000000       0.00000000       0.01641687       0.00000000       0.00000000       0.00000291       0.00000000       0.00000000       0.00014853       0.00000000       0.00000000       0.00000291       0.00000000       0.00000000       0.00014853       0.00000000       0.00000000      -0.00078151       0.00000000       0.00000000      -0.00326756       0.00000000       0.00000000       0.00072147       0.00000000       0.00000000       0.00621429       0.00000000       0.00000000      -0.00078151       0.00000000       0.00000000      -0.00326756       0.00000000       0.00000000       0.00072147       0.00000000       0.00000000       0.00621429       0.00000000 </v>
[...]
      </set>
     </set>
    </set>
   </array>
  </eigenvalues>
  <separator name="orbital magnetization" >
   <v name="MAGDIPOLOUT">      0.00000000      0.00000000      0.00000000</v>
  </separator>
  <dos>
   <i name="efermi">      0.20898553 </i>
   <total>
    <array>
     <dimension dim="1">gridpoints</dimension>
     <dimension dim="2">spin</dimension>
     <field>energy</field>
     <field>total</field>
     <field>integrated</field>
     <set>
      <set comment="spin 1">
       <r>   -23.6485     0.0000     0.0000 </r>
       <r>   -23.5349     0.0000     0.0000 </r>
       <r>   -23.4213     0.0000     0.0000 </r>
       <r>   -23.3077     0.0000     0.0000 </r>
       <r>   -23.1941     0.0000     0.0000 </r>
       <r>   -23.0805     0.0000     0.0000 </r>
       <r>   -22.9669     0.0000     0.0000 </r>
       <r>   -22.8533     0.0000     0.0000 </r>
       <r>   -22.7397     0.0000     0.0000 </r>
       <r>   -22.6261     0.0000     0.0000 </r>
       <r>   -22.5125     0.0000     0.0000 </r>
       <r>   -22.3989     0.0001     0.0000 </r>
       <r>   -22.2853     0.0035     0.0004 </r>
       <r>   -22.1717     0.1194     0.0140 </r>
       <r>   -22.0581     2.1870     0.2624 </r>
       <r>   -21.9445    21.5615     2.7119 </r>
       <r>   -21.8309   114.8043    15.7540 </r>
       <r>   -21.7173   331.0690    53.3644 </r>
       <r>   -21.6037   518.1476   112.2276 </r>
       <r>   -21.4901   440.5192   162.2719 </r>
       <r>   -21.3765   203.3712   185.3755 </r>
       <r>   -21.2629    50.9010   191.1580 </r>
       <r>   -21.1493     6.8890   191.9406 </r>
       <r>   -21.0357     0.5026   191.9977 </r>
       <r>   -20.9221     0.0197   192.0000 </r>
       <r>   -20.8085     0.0004   192.0000 </r>
       <r>   -20.6949     0.0000   192.0000 </r>
       <r>   -20.5813     0.0000   192.0000 </r>
       <r>   -20.4677     0.0000   192.0000 </r>
       <r>   -20.3541     0.0000   192.0000 </r>
       <r>   -20.2405     0.0000   192.0000 </r>
       <r>   -20.1268     0.0000   192.0000 </r>
       <r>   -20.0132     0.0000   192.0000 </r>
       <r>   -19.8996     0.0000   192.0000 </r>
       <r>   -19.7860     0.0000   192.0000 </r>
       <r>   -19.6724     0.0000   192.0000 </r>
       <r>   -19.5588     0.0000   192.0000 </r>
       <r>   -19.4452     0.0000   192.0000 </r>
       <r>   -19.3316     0.0000   192.0000 </r>
       <r>   -19.2180     0.0000   192.0000 </r>
       <r>   -19.1044     0.0000   192.0000 </r>
       <r>   -18.9908     0.0000   192.0000 </r>
       <r>   -18.8772     0.0000   192.0000 </r>
       <r>   -18.7636     0.0000   192.0000 </r>
       <r>   -18.6500     0.0000   192.0000 </r>
       <r>   -18.5364     0.0000   192.0000 </r>
       <r>   -18.4228     0.0000   192.0000 </r>
       <r>   -18.3092     0.0000   192.0000 </r>
       <r>   -18.1956     0.0000   192.0000 </r>
       <r>   -18.0820     0.0000   192.0000 </r>
       <r>   -17.9684     0.0000   192.0000 </r>
       <r>   -17.8548     0.0000   192.0000 </r>
       <r>   -17.7412     0.0000   192.0000 </r>
       <r>   -17.6276     0.0000   192.0000 </r>
       <r>   -17.5140     0.0000   192.0000 </r>
       <r>   -17.4004     0.0000   192.0000 </r>
       <r>   -17.2868     0.0000   192.0000 </r>
       <r>   -17.1732     0.0000   192.0000 </r>
       <r>   -17.0596     0.0000   192.0000 </r>
       <r>   -16.9460     0.0000   192.0000 </r>
       <r>   -16.8324     0.0000   192.0000 </r>
       <r>   -16.7188     0.0000   192.0000 </r>
       <r>   -16.6052     0.0000   192.0000 </r>
       <r>   -16.4916     0.0000   192.0000 </r>
       <r>   -16.3779     0.0000   192.0000 </r>
       <r>   -16.2643     0.0000   192.0000 </r>
       <r>   -16.1507     0.0000   192.0000 </r>
       <r>   -16.0371     0.0000   192.0000 </r>
       <r>   -15.9235     0.0000   192.0000 </r>
       <r>   -15.8099     0.0000   192.0000 </r>
       <r>   -15.6963     0.0000   192.0000 </r>
       <r>   -15.5827     0.0000   192.0000 </r>
       <r>   -15.4691     0.0000   192.0000 </r>
       <r>   -15.3555     0.0000   192.0000 </r>
       <r>   -15.2419     0.0000   192.0000 </r>
       <r>   -15.1283     0.0000   192.0000 </r>
       <r>   -15.0147     0.0000   192.0000 </r>
       <r>   -14.9011     0.0000   192.0000 </r>
       <r>   -14.7875     0.0000   192.0000 </r>
       <r>   -14.6739     0.0000   192.0000 </r>
       <r>   -14.5603     0.0000   192.0000 </r>
       <r>   -14.4467     0.0000   192.0000 </r>
       <r>   -14.3331     0.0000   192.0000 </r>
       <r>   -14.2195     0.0000   192.0000 </r>
       <r>   -14.1059     0.0000   192.0000 </r>
       <r>   -13.9923     0.0000   192.0000 </r>
       <r>   -13.8787     0.0012   192.0001 </r>
       <r>   -13.7651     0.0248   192.0030 </r>
       <r>   -13.6515     0.3046   192.0376 </r>
       <r>   -13.5379     2.2692   192.2954 </r>
       <r>   -13.4243    10.9878   193.5436 </r>
       <r>   -13.3107    37.0478   197.7523 </r>
       <r>   -13.1971    88.8754   207.8489 </r>
       <r>   -13.0835   144.7661   224.2947 </r>
       <r>   -12.9699   148.8248   241.2017 </r>
       <r>   -12.8563    91.1250   251.5538 </r>
       <r>   -12.7427    32.0579   255.1956 </r>
       <r>   -12.6290     6.3416   255.9161 </r>
       <r>   -12.5154     0.6956   255.9951 </r>
       <r>   -12.4018     0.0419   255.9998 </r>
       <r>   -12.2882     0.0014   256.0000 </r>
       <r>   -12.1746     0.0000   256.0000 </r>
       <r>   -12.0610     0.0000   256.0000 </r>
       <r>   -11.9474     0.0000   256.0000 </r>
       <r>   -11.8338     0.0000   256.0000 </r>
       <r>   -11.7202     0.0000   256.0000 </r>
       <r>   -11.6066     0.0000   256.0000 </r>
       <r>   -11.4930     0.0000   256.0000 </r>
       <r>   -11.3794     0.0000   256.0000 </r>
       <r>   -11.2658     0.0000   256.0000 </r>
       <r>   -11.1522     0.0000   256.0000 </r>
       <r>   -11.0386     0.0000   256.0000 </r>
       <r>   -10.9250     0.0000   256.0000 </r>
       <r>   -10.8114     0.0000   256.0000 </r>
       <r>   -10.6978     0.0000   256.0000 </r>
       <r>   -10.5842     0.0000   256.0000 </r>
       <r>   -10.4706     0.0000   256.0000 </r>
       <r>   -10.3570     0.0000   256.0000 </r>
       <r>   -10.2434     0.0000   256.0000 </r>
       <r>   -10.1298     0.0000   256.0000 </r>
       <r>   -10.0162     0.0000   256.0000 </r>
       <r>    -9.9026     0.0000   256.0000 </r>
       <r>    -9.7890     0.0000   256.0000 </r>
       <r>    -9.6754     0.0000   256.0000 </r>
       <r>    -9.5618     0.0000   256.0000 </r>
       <r>    -9.4482     0.0000   256.0000 </r>
       <r>    -9.3346     0.0000   256.0000 </r>
       <r>    -9.2210     0.0000   256.0000 </r>
       <r>    -9.1074     0.0000   256.0000 </r>
       <r>    -8.9937     0.0000   256.0000 </r>
       <r>    -8.8801     0.0000   256.0000 </r>
       <r>    -8.7665     0.0000   256.0000 </r>
       <r>    -8.6529     0.0000   256.0000 </r>
       <r>    -8.5393     0.0000   256.0000 </r>
       <r>    -8.4257     0.0000   256.0000 </r>
       <r>    -8.3121     0.0000   256.0000 </r>
       <r>    -8.1985     0.0000   256.0000 </r>
       <r>    -8.0849     0.0000   256.0000 </r>
       <r>    -7.9713     0.0000   256.0000 </r>
       <r>    -7.8577     0.0000   256.0000 </r>
       <r>    -7.7441     0.0000   256.0000 </r>
       <r>    -7.6305     0.0000   256.0000 </r>
       <r>    -7.5169     0.0000   256.0000 </r>
       <r>    -7.4033     0.0000   256.0000 </r>
       <r>    -7.2897     0.0000   256.0000 </r>
       <r>    -7.1761     0.0000   256.0000 </r>
       <r>    -7.0625     0.0000   256.0000 </r>
       <r>    -6.9489     0.0000   256.0000 </r>
       <r>    -6.8353     0.0000   256.0000 </r>
       <r>    -6.7217     0.0000   256.0000 </r>
       <r>    -6.6081     0.0000   256.0000 </r>
       <r>    -6.4945     0.0000   256.0000 </r>
       <r>    -6.3809     0.0000   256.0000 </r>
       <r>    -6.2673     0.0000   256.0000 </r>
       <r>    -6.1537     0.0000   256.0000 </r>
       <r>    -6.0401     0.0000   256.0000 </r>
       <r>    -5.9265     0.0000   256.0000 </r>
       <r>    -5.8129     0.0000   256.0000 </r>
       <r>    -5.6993     0.0000   256.0000 </r>
       <r>    -5.5857     0.0000   256.0000 </r>
       <r>    -5.4721     0.0000   256.0000 </r>
       <r>    -5.3585     0.0000   256.0000 </r>
       <r>    -5.2448     0.0000   256.0000 </r>
       <r>    -5.1312     0.0000   256.0000 </r>
       <r>    -5.0176     0.0000   256.0000 </r>
       <r>    -4.9040     0.0000   256.0000 </r>
       <r>    -4.7904     0.0000   256.0000 </r>
       <r>    -4.6768     0.0000   256.0000 </r>
       <r>    -4.5632     0.0000   256.0000 </r>
       <r>    -4.4496     0.0000   256.0000 </r>
       <r>    -4.3360     0.0000   256.0000 </r>
       <r>    -4.2224     0.0000   256.0000 </r>
       <r>    -4.1088     0.0000   256.0000 </r>
       <r>    -3.9952     0.0000   256.0000 </r>
       <r>    -3.8816     0.0000   256.0000 </r>
       <r>    -3.7680     0.0000   256.0000 </r>
       <r>    -3.6544     0.0000   256.0000 </r>
       <r>    -3.5408     0.0000   256.0000 </r>
       <r>    -3.4272     0.0000   256.0000 </r>
       <r>    -3.3136     0.0000   256.0000 </r>
       <r>    -3.2000     0.0000   256.0000 </r>
       <r>    -3.0864     0.0011   256.0001 </r>
       <r>    -2.9728     0.0249   256.0030 </r>
       <r>    -2.8592     0.3176   256.0390 </r>
       <r>    -2.7456     2.2336   256.2928 </r>
       <r>    -2.6320     9.0646   257.3226 </r>
       <r>    -2.5184    23.7389   260.0194 </r>
       <r>    -2.4048    48.4326   265.5214 </r>
       <r>    -2.2912    84.5270   275.1240 </r>
       <r>    -2.1776   114.2380   288.1018 </r>
       <r>    -2.0640   108.7302   300.4538 </r>
       <r>    -1.9504    75.0682   308.9818 </r>
       <r>    -1.8368    54.7226   315.1985 </r>
       <r>    -1.7232    65.4725   322.6364 </r>
       <r>    -1.6096    81.8261   331.9321 </r>
       <r>    -1.4959    94.0400   342.6153 </r>
       <r>    -1.3823   119.8539   356.2311 </r>
       <r>    -1.2687   156.5228   374.0125 </r>
       <r>    -1.1551   184.3904   394.9598 </r>
       <r>    -1.0415   181.9880   415.6342 </r>
       <r>    -0.9279   142.9927   431.8786 </r>
       <r>    -0.8143    87.0772   441.7709 </r>
       <r>    -0.7007    39.3696   446.2434 </r>
       <r>    -0.5871    12.4714   447.6602 </r>
       <r>    -0.4735     2.6189   447.9577 </r>
       <r>    -0.3599     0.3444   447.9968 </r>
       <r>    -0.2463     0.0268   447.9999 </r>
       <r>    -0.1327     0.0012   448.0000 </r>
       <r>    -0.0191     0.0000   448.0000 </r>
       <r>     0.0945     0.0000   448.0000 </r>
       <r>     0.2081     0.0000   448.0000 </r>
       <r>     0.3217     0.0000   448.0000 </r>
       <r>     0.4353     0.0000   448.0000 </r>
       <r>     0.5489     0.0000   448.0000 </r>
       <r>     0.6625     0.0000   448.0000 </r>
       <r>     0.7761     0.0000   448.0000 </r>
       <r>     0.8897     0.0000   448.0000 </r>
       <r>     1.0033     0.0000   448.0000 </r>
       <r>     1.1169     0.0000   448.0000 </r>
       <r>     1.2305     0.0000   448.0000 </r>
       <r>     1.3441     0.0000   448.0000 </r>
       <r>     1.4577     0.0000   448.0000 </r>
       <r>     1.5713     0.0000   448.0000 </r>
       <r>     1.6849     0.0000   448.0000 </r>
       <r>     1.7985     0.0000   448.0000 </r>
       <r>     1.9121     0.0000   448.0000 </r>
       <r>     2.0257     0.0000   448.0000 </r>
       <r>     2.1393     0.0000   448.0000 </r>
       <r>     2.2530     0.0000   448.0000 </r>
       <r>     2.3666     0.0000   448.0000 </r>
       <r>     2.4802     0.0000   448.0000 </r>
       <r>     2.5938     0.0000   448.0000 </r>
       <r>     2.7074     0.0000   448.0000 </r>
       <r>     2.8210     0.0000   448.0000 </r>
       <r>     2.9346     0.0000   448.0000 </r>
       <r>     3.0482     0.0000   448.0000 </r>
       <r>     3.1618     0.0000   448.0000 </r>
       <r>     3.2754     0.0000   448.0000 </r>
       <r>     3.3890     0.0000   448.0000 </r>
       <r>     3.5026     0.0000   448.0000 </r>
       <r>     3.6162     0.0000   448.0000 </r>
       <r>     3.7298     0.0000   448.0000 </r>
       <r>     3.8434     0.0000   448.0000 </r>
       <r>     3.9570     0.0000   448.0000 </r>
       <r>     4.0706     0.0000   448.0000 </r>
       <r>     4.1842     0.0016   448.0002 </r>
       <r>     4.2978     0.0280   448.0034 </r>
       <r>     4.4114     0.2631   448.0333 </r>
       <r>     4.5250     1.3353   448.1849 </r>
       <r>     4.6386     3.6659   448.6014 </r>
       <r>     4.7522     5.4560   449.2212 </r>
       <r>     4.8658     4.4057   449.7217 </r>
       <r>     4.9794     1.9294   449.9409 </r>
       <r>     5.0930     0.4579   449.9929 </r>
       <r>     5.2066     0.0721   450.0011 </r>
       <r>     5.3202     0.1961   450.0234 </r>
       <r>     5.4338     1.4654   450.1899 </r>
       <r>     5.5474     6.0384   450.8759 </r>
       <r>     5.6610    13.4735   452.4065 </r>
       <r>     5.7746    16.3078   454.2591 </r>
       <r>     5.8883    10.7761   455.4833 </r>
       <r>     6.0019     4.5588   456.0012 </r>
       <r>     6.1155     4.9580   456.5644 </r>
       <r>     6.2291    12.9602   458.0368 </r>
       <r>     6.3427    21.3300   460.4599 </r>
       <r>     6.4563    19.5596   462.6819 </r>
       <r>     6.5699    12.7581   464.1313 </r>
       <r>     6.6835    16.6661   466.0246 </r>
       <r>     6.7971    33.2748   469.8047 </r>
       <r>     6.9107    44.9599   474.9123 </r>
       <r>     7.0243    39.7859   479.4321 </r>
       <r>     7.1379    31.4284   483.0025 </r>
       <r>     7.2515    33.7816   486.8402 </r>
       <r>     7.3651    36.8544   491.0269 </r>
       <r>     7.4787    36.3197   495.1530 </r>
       <r>     7.5923    48.0992   500.6172 </r>
       <r>     7.7059    63.4666   507.8272 </r>
       <r>     7.8195    55.1112   514.0880 </r>
       <r>     7.9331    32.1169   517.7366 </r>
       <r>     8.0467    23.3079   520.3844 </r>
       <r>     8.1603    33.1828   524.1541 </r>
       <r>     8.2739    49.7862   529.8099 </r>
       <r>     8.3875    56.7462   536.2565 </r>
       <r>     8.5011    42.5362   541.0887 </r>
       <r>     8.6147    19.4624   543.2997 </r>
       <r>     8.7283     5.2621   543.8975 </r>
       <r>     8.8419     0.8249   543.9912 </r>
       <r>     8.9555     0.0737   543.9996 </r>
       <r>     9.0691     0.0037   544.0000 </r>
       <r>     9.1827     0.0001   544.0000 </r>
       <r>     9.2963     0.0000   544.0000 </r>
       <r>     9.4099     0.0000   544.0000 </r>
       <r>     9.5235     0.0000   544.0000 </r>
       <r>     9.6372     0.0000   544.0000 </r>
       <r>     9.7508     0.0000   544.0000 </r>
       <r>     9.8644     0.0000   544.0000 </r>
       <r>     9.9780     0.0000   544.0000 </r>
       <r>    10.0916     0.0000   544.0000 </r>
       <r>    10.2052     0.0000   544.0000 </r>
       <r>    10.3188     0.0000   544.0000 </r>
       <r>    10.4324     0.0000   544.0000 </r>
      </set>
     </set>
    </array>
   </total>
  </dos>
 </calculation>
 <structure name="finalpos" >
  <crystal>
   <varray name="basis" >
    <v>      11.38060295       0.00000000       0.00000000 </v>
    <v>       0.00000000      11.38060295       0.00000000 </v>
    <v>       0.00000000       0.00000000      11.38060295 </v>
   </varray>
   <i name="volume">   1473.99433936 </i>
   <varray name="rec_basis" >
    <v>       0.08786881       0.00000000       0.00000000 </v>
    <v>       0.00000000       0.08786881       0.00000000 </v>
    <v>       0.00000000       0.00000000       0.08786881 </v>
   </varray>
  </crystal>
  <varray name="positions" >
   <v>       0.00000000       0.00000000       0.00000000 </v>
   <v>       0.50000000       0.00000000       0.00000000 </v>
   <v>       0.00000000       0.50000000       0.00000000 </v>
   <v>       0.50000000       0.50000000       0.00000000 </v>
   <v>       0.00000000       0.00000000       0.50000000 </v>
   <v>       0.50000000       0.00000000       0.50000000 </v>
   <v>       0.00000000       0.50000000       0.50000000 </v>
   <v>       0.50000000       0.50000000       0.50000000 </v>
   <v>       0.00000000       0.25000000       0.25000000 </v>
   <v>       0.50000000       0.25000000       0.25000000 </v>
   <v>       0.00000000       0.75000000       0.25000000 </v>
   <v>       0.50000000       0.75000000       0.25000000 </v>
   <v>       0.00000000       0.25000000       0.75000000 </v>
   <v>       0.50000000       0.25000000       0.75000000 </v>
   <v>       0.00000000       0.75000000       0.75000000 </v>
   <v>       0.50000000       0.75000000       0.75000000 </v>
   <v>       0.25000000       0.00000000       0.25000000 </v>
   <v>       0.75000000       0.00000000       0.25000000 </v>
   <v>       0.25000000       0.50000000       0.25000000 </v>
   <v>       0.75000000       0.50000000       0.25000000 </v>
   <v>       0.25000000       0.00000000       0.75000000 </v>
   <v>       0.75000000       0.00000000       0.75000000 </v>
   <v>       0.25000000       0.50000000       0.75000000 </v>
   <v>       0.75000000       0.50000000       0.75000000 </v>
   <v>       0.25000000       0.25000000       0.00000000 </v>
   <v>       0.75000000       0.25000000       0.00000000 </v>
   <v>       0.25000000       0.75000000       0.00000000 </v>
   <v>       0.75000000       0.75000000       0.00000000 </v>
   <v>       0.25000000       0.25000000       0.50000000 </v>
   <v>       0.75000000       0.25000000       0.50000000 </v>
   <v>       0.25000000       0.75000000       0.50000000 </v>
   <v>       0.75000000       0.75000000       0.50000000 </v>
   <v>       0.25000000       0.25000000       0.25000000 </v>
   <v>       0.75000000       0.25000000       0.25000000 </v>
   <v>       0.25000000       0.75000000       0.25000000 </v>
   <v>       0.75000000       0.75000000       0.25000000 </v>
   <v>       0.25000000       0.25000000       0.75000000 </v>
   <v>       0.75000000       0.25000000       0.75000000 </v>
   <v>       0.25000000       0.75000000       0.75000000 </v>
   <v>       0.75000000       0.75000000       0.75000000 </v>
   <v>       0.25000000       0.00000000       0.00000000 </v>
   <v>       0.75000000       0.00000000       0.00000000 </v>
   <v>       0.25000000       0.50000000       0.00000000 </v>
   <v>       0.75000000       0.50000000       0.00000000 </v>
   <v>       0.25000000       0.00000000       0.50000000 </v>
   <v>       0.75000000       0.00000000       0.50000000 </v>
   <v>       0.25000000       0.50000000       0.50000000 </v>
   <v>       0.75000000       0.50000000       0.50000000 </v>
   <v>       0.00000000       0.25000000       0.00000000 </v>
   <v>       0.50000000       0.25000000       0.00000000 </v>
   <v>       0.00000000       0.75000000       0.00000000 </v>
   <v>       0.50000000       0.75000000       0.00000000 </v>
   <v>       0.00000000       0.25000000       0.50000000 </v>
   <v>       0.50000000       0.25000000       0.50000000 </v>
   <v>       0.00000000       0.75000000       0.50000000 </v>
   <v>       0.50000000       0.75000000       0.50000000 </v>
   <v>       0.00000000       0.00000000       0.25000000 </v>
   <v>       0.50000000       0.00000000       0.25000000 </v>
   <v>       0.00000000       0.50000000       0.25000000 </v>
   <v>       0.50000000       0.50000000       0.25000000 </v>
   <v>       0.00000000       0.00000000       0.75000000 </v>
   <v>       0.50000000       0.00000000       0.75000000 </v>
   <v>       0.00000000       0.50000000       0.75000000 </v>
   <v>       0.50000000       0.50000000       0.75000000 </v>
  </varray>
 </structure>
</modeling>
