natom:   40
displacements:
- atom:    1
  displacement:
    [   0.0100000000000000,  0.0000000000000000,  0.0000000000000000 ]
- atom:    9
  displacement:
    [   0.0100000000000000,  0.0000000000000000,  0.0000000000000000 ]
- atom:   17
  displacement:
    [   0.0000000000000000,  0.0100000000000000,  0.0000000000000000 ]
- atom:   17
  displacement:
    [   0.0100000000000000,  0.0000000000000000,  0.0000000000000000 ]
lattice:
- [    7.770651380000000,   0.000000000000000,   0.000000000000000 ]
- [    0.000000000000000,   7.770651380000000,   0.000000000000000 ]
- [    0.000000000000000,   0.000000000000000,   7.770651380000000 ]
atoms:
- symbol: Ca # 1
  position: [   0.00000000000000,  0.00000000000000,  0.00000000000000 ]
- symbol: Ca # 2
  position: [   0.50000000000000,  0.00000000000000,  0.00000000000000 ]
- symbol: Ca # 3
  position: [   0.00000000000000,  0.50000000000000,  0.00000000000000 ]
- symbol: Ca # 4
  position: [   0.50000000000000,  0.50000000000000,  0.00000000000000 ]
- symbol: Ca # 5
  position: [   0.00000000000000,  0.00000000000000,  0.50000000000000 ]
- symbol: Ca # 6
  position: [   0.50000000000000,  0.00000000000000,  0.50000000000000 ]
- symbol: Ca # 7
  position: [   0.00000000000000,  0.50000000000000,  0.50000000000000 ]
- symbol: Ca # 8
  position: [   0.50000000000000,  0.50000000000000,  0.50000000000000 ]
- symbol: Ti # 9
  position: [   0.25000000000000,  0.25000000000000,  0.25000000000000 ]
- symbol: Ti # 10
  position: [   0.75000000000000,  0.25000000000000,  0.25000000000000 ]
- symbol: Ti # 11
  position: [   0.25000000000000,  0.75000000000000,  0.25000000000000 ]
- symbol: Ti # 12
  position: [   0.75000000000000,  0.75000000000000,  0.25000000000000 ]
- symbol: Ti # 13
  position: [   0.25000000000000,  0.25000000000000,  0.75000000000000 ]
- symbol: Ti # 14
  position: [   0.75000000000000,  0.25000000000000,  0.75000000000000 ]
- symbol: Ti # 15
  position: [   0.25000000000000,  0.75000000000000,  0.75000000000000 ]
- symbol: Ti # 16
  position: [   0.75000000000000,  0.75000000000000,  0.75000000000000 ]
- symbol: O  # 17
  position: [   0.00000000000000,  0.25000000000000,  0.25000000000000 ]
- symbol: O  # 18
  position: [   0.50000000000000,  0.25000000000000,  0.25000000000000 ]
- symbol: O  # 19
  position: [   0.00000000000000,  0.75000000000000,  0.25000000000000 ]
- symbol: O  # 20
  position: [   0.50000000000000,  0.75000000000000,  0.25000000000000 ]
- symbol: O  # 21
  position: [   0.00000000000000,  0.25000000000000,  0.75000000000000 ]
- symbol: O  # 22
  position: [   0.50000000000000,  0.25000000000000,  0.75000000000000 ]
- symbol: O  # 23
  position: [   0.00000000000000,  0.75000000000000,  0.75000000000000 ]
- symbol: O  # 24
  position: [   0.50000000000000,  0.75000000000000,  0.75000000000000 ]
- symbol: O  # 25
  position: [   0.25000000000000,  0.00000000000000,  0.25000000000000 ]
- symbol: O  # 26
  position: [   0.75000000000000,  0.00000000000000,  0.25000000000000 ]
- symbol: O  # 27
  position: [   0.25000000000000,  0.50000000000000,  0.25000000000000 ]
- symbol: O  # 28
  position: [   0.75000000000000,  0.50000000000000,  0.25000000000000 ]
- symbol: O  # 29
  position: [   0.25000000000000,  0.00000000000000,  0.75000000000000 ]
- symbol: O  # 30
  position: [   0.75000000000000,  0.00000000000000,  0.75000000000000 ]
- symbol: O  # 31
  position: [   0.25000000000000,  0.50000000000000,  0.75000000000000 ]
- symbol: O  # 32
  position: [   0.75000000000000,  0.50000000000000,  0.75000000000000 ]
- symbol: O  # 33
  position: [   0.25000000000000,  0.25000000000000,  0.00000000000000 ]
- symbol: O  # 34
  position: [   0.75000000000000,  0.25000000000000,  0.00000000000000 ]
- symbol: O  # 35
  position: [   0.25000000000000,  0.75000000000000,  0.00000000000000 ]
- symbol: O  # 36
  position: [   0.75000000000000,  0.75000000000000,  0.00000000000000 ]
- symbol: O  # 37
  position: [   0.25000000000000,  0.25000000000000,  0.50000000000000 ]
- symbol: O  # 38
  position: [   0.75000000000000,  0.25000000000000,  0.50000000000000 ]
- symbol: O  # 39
  position: [   0.25000000000000,  0.75000000000000,  0.50000000000000 ]
- symbol: O  # 40
  position: [   0.75000000000000,  0.75000000000000,  0.50000000000000 ]
