40
4

1
  0.0100000000000000   0.0000000000000000   0.0000000000000000
  -0.0248901400    0.0000000000    0.0000000000
   0.0167876400    0.0000000000    0.0000000000
  -0.0058367500    0.0000000000    0.0000000000
   0.0058957400    0.0000000000    0.0000000000
  -0.0058367500    0.0000000000    0.0000000000
   0.0058957400    0.0000000000    0.0000000000
  -0.0027606700    0.0000000000    0.0000000000
   0.0026724100    0.0000000000    0.0000000000
   0.0029562100    0.0112692100    0.0112692100
   0.0030204700   -0.0111975700   -0.0111975700
   0.0029562100   -0.0112692100    0.0112692100
   0.0030204700    0.0111975700   -0.0111975700
   0.0029562100    0.0112692100   -0.0112692100
   0.0030204700   -0.0111975700    0.0111975700
   0.0029562100   -0.0112692100   -0.0112692100
   0.0030204700    0.0111975700    0.0111975700
   0.0096558700    0.0000126800    0.0000126800
  -0.0071739000   -0.0000050100   -0.0000050100
   0.0096558700   -0.0000126800    0.0000126800
  -0.0071739000    0.0000050100   -0.0000050100
   0.0096558700    0.0000126800   -0.0000126800
  -0.0071739000   -0.0000050100    0.0000050100
   0.0096558700   -0.0000126800   -0.0000126800
  -0.0071739000    0.0000050100    0.0000050100
  -0.0033927900    0.0000000000   -0.0070782200
  -0.0034981400    0.0000000000    0.0070962100
   0.0002293600    0.0000000000   -0.0017021100
   0.0002211100    0.0000000000    0.0016919800
  -0.0033927900    0.0000000000    0.0070782200
  -0.0034981400    0.0000000000   -0.0070962100
   0.0002293600    0.0000000000    0.0017021100
   0.0002211100    0.0000000000   -0.0016919800
  -0.0033927900   -0.0070782200    0.0000000000
  -0.0034981400    0.0070962100    0.0000000000
  -0.0033927900    0.0070782200    0.0000000000
  -0.0034981400   -0.0070962100    0.0000000000
   0.0002293600   -0.0017021100    0.0000000000
   0.0002211100    0.0016919800    0.0000000000
   0.0002293600    0.0017021100    0.0000000000
   0.0002211100   -0.0016919800    0.0000000000

9
  0.0100000000000000   0.0000000000000000   0.0000000000000000
   0.0030065200    0.0111566700    0.0111566700
   0.0029655100   -0.0113176800   -0.0113176800
   0.0030065200   -0.0111566700    0.0111566700
   0.0029655100    0.0113176800   -0.0113176800
   0.0030065200    0.0111566700   -0.0111566700
   0.0029655100   -0.0113176800    0.0113176800
   0.0030065200   -0.0111566700   -0.0111566700
   0.0029655100    0.0113176800    0.0113176800
  -0.1730948300    0.0000000000    0.0000000000
   0.1584706500    0.0000000000    0.0000000000
   0.0001394800    0.0000000000    0.0000000000
   0.0036529300    0.0000000000    0.0000000000
   0.0001394800    0.0000000000    0.0000000000
   0.0036529300    0.0000000000    0.0000000000
  -0.0021697300    0.0000000000    0.0000000000
   0.0022483600    0.0000000000    0.0000000000
   0.0027705600    0.0000000000    0.0000000000
   0.0080928900    0.0000000000    0.0000000000
  -0.0014248300    0.0000000000    0.0000000000
  -0.0013059200    0.0000000000    0.0000000000
  -0.0014248300    0.0000000000    0.0000000000
  -0.0013059200    0.0000000000    0.0000000000
  -0.0000051800    0.0000000000    0.0000000000
   0.0000214700    0.0000000000    0.0000000000
   0.0130674700    0.0003590000    0.0000000000
  -0.0187505400    0.0000333100    0.0000000000
   0.0130674700   -0.0003590000    0.0000000000
  -0.0187505400   -0.0000333100    0.0000000000
   0.0012204100   -0.0000169200    0.0000000000
  -0.0011237500    0.0000017100    0.0000000000
   0.0012204100    0.0000169200    0.0000000000
  -0.0011237500   -0.0000017100    0.0000000000
   0.0130674700    0.0000000000    0.0003590000
  -0.0187505400    0.0000000000    0.0000333100
   0.0012204100    0.0000000000   -0.0000169200
  -0.0011237500    0.0000000000    0.0000017100
   0.0130674700    0.0000000000   -0.0003590000
  -0.0187505400    0.0000000000   -0.0000333100
   0.0012204100    0.0000000000    0.0000169200
  -0.0011237500    0.0000000000   -0.0000017100

17
  0.0000000000000000   0.0100000000000000   0.0000000000000000
   0.0000000000   -0.0035018100   -0.0071057000
   0.0000000000    0.0001983200   -0.0016954400
   0.0000000000   -0.0033893000    0.0070686300
   0.0000000000    0.0002528900    0.0016990600
   0.0000000000   -0.0035018100    0.0071057000
   0.0000000000    0.0001983200    0.0016954400
   0.0000000000   -0.0033893000   -0.0070686300
   0.0000000000    0.0002528900   -0.0016990600
  -0.0001855700    0.0130683300    0.0000000000
   0.0001855700    0.0130683300    0.0000000000
  -0.0000203300   -0.0187537100    0.0000000000
   0.0000203300   -0.0187537100    0.0000000000
  -0.0000105900    0.0012220600    0.0000000000
   0.0000105900    0.0012220600    0.0000000000
  -0.0000146300   -0.0011199500    0.0000000000
   0.0000146300   -0.0011199500    0.0000000000
   0.0000000000   -0.0397154300    0.0000000000
   0.0000000000    0.0040056800    0.0000000000
   0.0000000000    0.0048815200    0.0000000000
   0.0000000000    0.0067101500    0.0000000000
   0.0000000000   -0.0015841900    0.0000000000
   0.0000000000   -0.0000550400    0.0000000000
   0.0000000000    0.0022361900    0.0000000000
   0.0000000000    0.0003936300    0.0000000000
  -0.0159346700    0.0148624200    0.0000000000
   0.0159346700    0.0148624200    0.0000000000
   0.0161818000    0.0149187700    0.0000000000
  -0.0161818000    0.0149187700    0.0000000000
  -0.0005206800   -0.0000287100    0.0000000000
   0.0005206800   -0.0000287100    0.0000000000
   0.0005334700   -0.0000679500    0.0000000000
  -0.0005334700   -0.0000679500    0.0000000000
  -0.0000334000   -0.0049889200    0.0000621100
   0.0000334000   -0.0049889200    0.0000621100
   0.0000046600    0.0019401000   -0.0000117900
  -0.0000046600    0.0019401000   -0.0000117900
  -0.0000334000   -0.0049889200   -0.0000621100
   0.0000334000   -0.0049889200   -0.0000621100
   0.0000046600    0.0019401000    0.0000117900
  -0.0000046600    0.0019401000    0.0000117900

17
  0.0100000000000000   0.0000000000000000   0.0000000000000000
   0.0096564900   -0.0001177700   -0.0001177700
  -0.0071742700    0.0000165500    0.0000165500
   0.0096564900    0.0001177700   -0.0001177700
  -0.0071742700   -0.0000165500    0.0000165500
   0.0096564900   -0.0001177700    0.0001177700
  -0.0071742700    0.0000165500   -0.0000165500
   0.0096564900    0.0001177700    0.0001177700
  -0.0071742700   -0.0000165500   -0.0000165500
   0.0081451200    0.0000000000    0.0000000000
   0.0026970700    0.0000000000    0.0000000000
  -0.0013506600    0.0000000000    0.0000000000
  -0.0013795600    0.0000000000    0.0000000000
  -0.0013506600    0.0000000000    0.0000000000
  -0.0013795600    0.0000000000    0.0000000000
   0.0000339800    0.0000000000    0.0000000000
  -0.0000168100    0.0000000000    0.0000000000
  -0.2159974700    0.0000000000    0.0000000000
   0.0747587500    0.0000000000    0.0000000000
  -0.0118806600    0.0000000000    0.0000000000
   0.0154981300    0.0000000000    0.0000000000
  -0.0118806600    0.0000000000    0.0000000000
   0.0154981300    0.0000000000    0.0000000000
  -0.0037419700    0.0000000000    0.0000000000
   0.0036934200    0.0000000000    0.0000000000
   0.0148424900   -0.0263700600    0.0000000000
   0.0149355400    0.0260464500    0.0000000000
   0.0148424900    0.0263700600    0.0000000000
   0.0149355400   -0.0260464500    0.0000000000
  -0.0000623900   -0.0025879300    0.0000000000
  -0.0000345000    0.0025610800    0.0000000000
  -0.0000623900    0.0025879300    0.0000000000
  -0.0000345000   -0.0025610800    0.0000000000
   0.0148424900    0.0000000000   -0.0263700600
   0.0149355400    0.0000000000    0.0260464500
  -0.0000623900    0.0000000000   -0.0025879300
  -0.0000345000    0.0000000000    0.0025610800
   0.0148424900    0.0000000000    0.0263700600
   0.0149355400    0.0000000000   -0.0260464500
  -0.0000623900    0.0000000000    0.0025879300
  -0.0000345000    0.0000000000   -0.0025610800
