<?xml version="1.0" encoding="ISO-8859-1"?>
<modeling>
 <generator>
  <i name="program" type="string">vasp </i>
  <i name="version" type="string">5.2.12  </i>
  <i name="subversion" type="string">11Nov11 complex                                                      parallel </i>
  <i name="platform" type="string">LinuxIFC </i>
  <i name="date" type="string">2012 05 26 </i>
  <i name="time" type="string">13:44:45 </i>
 </generator>
 <incar>
  <i type="string" name="PREC">accurate</i>
  <i type="int" name="IALGO">    38</i>
  <i type="logical" name="ADDGRID"> T  </i>
  <i type="int" name="NELMIN">     5</i>
  <i type="int" name="IBRION">    -1</i>
  <i name="EDIFF">      0.00000001</i>
  <i name="ENCUT">    500.00000000</i>
  <i type="logical" name="LREAL"> F  </i>
  <i type="int" name="ISMEAR">     0</i>
  <i name="SIGMA">      0.01000000</i>
  <i type="logical" name="LWAVE"> F  </i>
  <i type="logical" name="LCHARG"> F  </i>
 </incar>
 <kpoints>
  <generation param="Gamma">
   <v type="int" name="divisions">       2        2        2 </v>
   <v name="usershift">      0.00000000       0.00000000       0.00000000 </v>
   <v name="genvec1">      0.50000000       0.00000000       0.00000000 </v>
   <v name="genvec2">      0.00000000       0.50000000       0.00000000 </v>
   <v name="genvec3">      0.00000000       0.00000000       0.50000000 </v>
   <v name="shift">      0.00000000       0.00000000       0.00000000 </v>
  </generation>
  <varray name="kpointlist" >
   <v>       0.00000000       0.00000000       0.00000000 </v>
   <v>       0.50000000       0.00000000       0.00000000 </v>
   <v>       0.00000000       0.50000000       0.00000000 </v>
   <v>       0.50000000       0.50000000       0.00000000 </v>
   <v>       0.00000000       0.00000000       0.50000000 </v>
   <v>       0.50000000       0.00000000       0.50000000 </v>
   <v>       0.00000000       0.50000000       0.50000000 </v>
   <v>       0.50000000       0.50000000       0.50000000 </v>
  </varray>
  <varray name="weights" >
   <v>       0.12500000 </v>
   <v>       0.12500000 </v>
   <v>       0.12500000 </v>
   <v>       0.12500000 </v>
   <v>       0.12500000 </v>
   <v>       0.12500000 </v>
   <v>       0.12500000 </v>
   <v>       0.12500000 </v>
  </varray>
 </kpoints>
 <parameters>
  <separator name="general" >
   <i type="string" name="SYSTEM">unknown system</i>
   <i type="logical" name="LCOMPAT"> F  </i>
  </separator>
  <separator name="electronic" >
   <i type="string" name="PREC">accura</i>
   <i name="ENMAX">    500.00000000</i>
   <i name="ENAUG">    605.39200000</i>
   <i name="EDIFF">      0.00000001</i>
   <i type="int" name="IALGO">    38</i>
   <i type="int" name="IWAVPR">    10</i>
   <i type="int" name="NBANDS">   192</i>
   <i name="NELECT">    320.00000000</i>
   <i type="int" name="TURBO">     0</i>
   <i type="int" name="IRESTART">     0</i>
   <i type="int" name="NREBOOT">     0</i>
   <i type="int" name="NMIN">     0</i>
   <i name="EREF">      0.00000000</i>
   <separator name="electronic smearing" >
    <i type="int" name="ISMEAR">     0</i>
    <i name="SIGMA">      0.01000000</i>
    <i name="KSPACING">      0.50000000</i>
    <i type="logical" name="KGAMMA"> T  </i>
   </separator>
   <separator name="electronic projectors" >
    <i type="logical" name="LREAL"> F  </i>
    <v name="ROPT">      0.00000000      0.00000000      0.00000000</v>
    <i type="int" name="LMAXPAW">  -100</i>
    <i type="int" name="LMAXMIX">     2</i>
    <i type="logical" name="NLSPLINE"> F  </i>
   </separator>
   <separator name="electronic startup" >
    <i type="int" name="ISTART">     0</i>
    <i type="int" name="ICHARG">     2</i>
    <i type="int" name="INIWAV">     1</i>
   </separator>
   <separator name="electronic spin" >
    <i type="int" name="ISPIN">     1</i>
    <i type="logical" name="LNONCOLLINEAR"> F  </i>
    <v name="MAGMOM">      1.00000000      1.00000000      1.00000000      1.00000000      1.00000000      1.00000000      1.00000000      1.00000000      1.00000000      1.00000000      1.00000000      1.00000000      1.00000000      1.00000000      1.00000000      1.00000000      1.00000000      1.00000000      1.00000000      1.00000000
      1.00000000      1.00000000      1.00000000      1.00000000      1.00000000      1.00000000      1.00000000      1.00000000      1.00000000      1.00000000      1.00000000      1.00000000      1.00000000      1.00000000      1.00000000      1.00000000      1.00000000      1.00000000      1.00000000      1.00000000
</v>
    <i name="NUPDOWN">     -1.00000000</i>
    <i type="logical" name="LSORBIT"> F  </i>
    <v name="SAXIS">      0.00000000      0.00000000      1.00000000</v>
    <i type="logical" name="LSPIRAL"> F  </i>
    <v name="QSPIRAL">      0.00000000      0.00000000      0.00000000</v>
    <i type="logical" name="LZEROZ"> F  </i>
   </separator>
   <separator name="electronic exchange-correlation" >
    <i type="logical" name="LASPH"> F  </i>
    <i type="logical" name="LMETAGGA"> F  </i>
   </separator>
   <separator name="electronic convergence" >
    <i type="int" name="NELM">    60</i>
    <i type="int" name="NELMDL">    -5</i>
    <i type="int" name="NELMIN">     5</i>
    <i name="ENINI">    500.00000000</i>
    <separator name="electronic convergence detail" >
     <i type="logical" name="LDIAG"> T  </i>
     <i type="logical" name="LSUBROT"> T  </i>
     <i name="WEIMIN">      0.00000000</i>
     <i name="EBREAK">      0.00000000</i>
     <i name="DEPER">      0.30000000</i>
     <i type="int" name="NRMM">     4</i>
     <i name="TIME">      0.40000000</i>
    </separator>
   </separator>
   <separator name="electronic mixer" >
    <i name="AMIX">      0.40000000</i>
    <i name="BMIX">      1.00000000</i>
    <i name="AMIN">      0.10000000</i>
    <i name="AMIX_MAG">      1.60000000</i>
    <i name="BMIX_MAG">      1.00000000</i>
    <separator name="electronic mixer details" >
     <i type="int" name="IMIX">     4</i>
     <i type="int" name="MAXMIX">   -45</i>
     <i name="WC">    100.00000000</i>
     <i type="int" name="INIMIX">     1</i>
     <i type="int" name="MIXPRE">     1</i>
     <i type="int" name="MREMOVE">     5</i>
    </separator>
   </separator>
   <separator name="electronic dipolcorrection" >
    <i type="logical" name="LDIPOL"> F  </i>
    <i type="logical" name="LMONO"> F  </i>
    <i type="int" name="IDIPOL">     0</i>
    <i name="EPSILON">      1.00000000</i>
    <v name="DIPOL">   -100.00000000   -100.00000000   -100.00000000</v>
    <i name="EFIELD">      0.00000000</i>
   </separator>
  </separator>
  <separator name="grids" >
   <i type="int" name="NGX">    60</i>
   <i type="int" name="NGY">    60</i>
   <i type="int" name="NGZ">    60</i>
   <i type="int" name="NGXF">   120</i>
   <i type="int" name="NGYF">   120</i>
   <i type="int" name="NGZF">   120</i>
   <i type="logical" name="ADDGRID"> T  </i>
  </separator>
  <separator name="ionic" >
   <i type="int" name="NSW">     0</i>
   <i type="int" name="IBRION">    -1</i>
   <i type="int" name="ISIF">     2</i>
   <i name="PSTRESS">      0.00000000</i>
   <i name="EDIFFG">      0.00000010</i>
   <i type="int" name="NFREE">     0</i>
   <i name="POTIM">      0.50000000</i>
   <i name="SMASS">     -3.00000000</i>
   <i name="SCALEE">      1.00000000</i>
  </separator>
  <separator name="ionic md" >
   <i name="TEBEG">      0.00010000</i>
   <i name="TEEND">      0.00010000</i>
   <i type="int" name="NBLOCK">     1</i>
   <i type="int" name="KBLOCK">     1</i>
   <i type="int" name="NPACO">   256</i>
   <i name="APACO">     16.00000000</i>
  </separator>
  <separator name="symmetry" >
   <i type="int" name="ISYM">     2</i>
   <i name="SYMPREC">      0.00001000</i>
  </separator>
  <separator name="dos" >
   <i type="logical" name="LORBIT"> F  </i>
   <v name="RWIGS">     -1.00000000     -1.00000000     -1.00000000</v>
   <i type="int" name="NEDOS">   301</i>
   <i name="EMIN">     10.00000000</i>
   <i name="EMAX">    -10.00000000</i>
   <i name="EFERMI">      0.00000000</i>
  </separator>
  <separator name="writing" >
   <i type="int" name="NWRITE">     2</i>
   <i type="logical" name="LWAVE"> F  </i>
   <i type="logical" name="LCHARG"> F  </i>
   <i type="logical" name="LPARD"> F  </i>
   <i type="logical" name="LVTOT"> F  </i>
   <i type="logical" name="LVHAR"> F  </i>
   <i type="logical" name="LELF"> F  </i>
   <i type="logical" name="LOPTICS"> F  </i>
   <v name="STM">      0.00000000      0.00000000      0.00000000      0.00000000      0.00000000      0.00000000      0.00000000</v>
  </separator>
  <separator name="performance" >
   <i type="int" name="NPAR">     4</i>
   <i type="int" name="NSIM">     4</i>
   <i type="int" name="NBLK">    -1</i>
   <i type="logical" name="LPLANE"> T  </i>
   <i type="logical" name="LSCALAPACK"> F  </i>
   <i type="logical" name="LSCAAWARE"> F  </i>
   <i type="logical" name="LSCALU"> F  </i>
   <i type="logical" name="LASYNC"> F  </i>
   <i type="logical" name="LORBITALREAL"> F  </i>
  </separator>
  <separator name="miscellaneous" >
   <i type="int" name="IDIOT">     3</i>
   <i type="logical" name="LMUSIC"> F  </i>
   <v name="POMASS">     40.07800000     47.88000000     16.00000000</v>
   <v name="DARWINR">      0.00000000      0.00000000      0.00000000</v>
   <v name="DARWINV">      1.00000000      1.00000000      1.00000000</v>
   <i type="logical" name="LCORR"> T  </i>
  </separator>
  <i type="logical" name="GGA_COMPAT"> T  </i>
  <i type="logical" name="LBERRY"> F  </i>
  <i type="int" name="ICORELEVEL">     0</i>
  <i type="logical" name="LDAU"> F  </i>
  <i type="int" name="I_CONSTRAINED_M">     0</i>
  <separator name="electronic exchange-correlation" >
   <i type="string" name="GGA">--</i>
   <i type="int" name="VOSKOWN">     0</i>
   <i type="logical" name="LHFCALC"> F  </i>
   <i type="string" name="PRECFOCK"></i>
   <i type="logical" name="LHFONE"> F  </i>
   <i type="logical" name="LRHFCALC"> F  </i>
   <i type="logical" name="LTHOMAS"> F  </i>
   <i type="logical" name="LMODELHF"> F  </i>
   <i name="ENCUT4O">     -1.00000000</i>
   <i type="int" name="EXXOEP">     0</i>
   <i type="int" name="FOURORBIT">     0</i>
   <i name="AEXX">      0.00000000</i>
   <i name="HFALPHA">      0.00000000</i>
   <i name="ALDAX">      1.00000000</i>
   <i name="AGGAX">      1.00000000</i>
   <i name="ALDAC">      1.00000000</i>
   <i name="AGGAC">      1.00000000</i>
   <i type="int" name="NKREDX">     1</i>
   <i type="int" name="NKREDY">     1</i>
   <i type="int" name="NKREDZ">     1</i>
   <i type="logical" name="SHIFTRED"> F  </i>
   <i type="logical" name="ODDONLY"> F  </i>
   <i type="logical" name="EVENONLY"> F  </i>
   <i type="int" name="LMAXFOCK">     0</i>
   <i type="int" name="NMAXFOCKAE">     0</i>
   <i type="logical" name="LFOCKAEDFT"> F  </i>
   <i name="HFSCREEN">      0.00000000</i>
   <i name="HFSCREENC">      0.00000000</i>
  </separator>
  <separator name="vdW DFT" >
   <i type="logical" name="LUSE_VDW"> F  </i>
   <i name="Zab_VDW">     -0.84910000</i>
   <i name="PARAM1">      0.12340000</i>
   <i name="PARAM2">      1.00000000</i>
   <i name="PARAM3">      0.00000000</i>
  </separator>
  <separator name="model GW" >
   <i type="int" name="MODEL_GW">     0</i>
   <i name="MODEL_EPS0">      7.03823130</i>
   <i name="MODEL_ALPHA">      1.00000000</i>
  </separator>
  <separator name="linear response parameters" >
   <i type="logical" name="LEPSILON"> F  </i>
   <i type="logical" name="LRPA"> F  </i>
   <i type="logical" name="LNABLA"> F  </i>
   <i type="logical" name="LVEL"> F  </i>
   <i type="int" name="KINTER">     0</i>
   <i name="CSHIFT">      0.10000000</i>
   <i name="OMEGAMAX">     -1.00000000</i>
  </separator>
  <separator name="orbital magnetization" >
   <i type="logical" name="NUCIND"> F  </i>
   <v name="MAGPOS">      0.00000000      0.00000000      0.00000000</v>
   <i type="logical" name="LNICSALL"> T  </i>
   <i type="logical" name="ORBITALMAG"> F  </i>
   <i type="logical" name="LMAGBLOCH"> F  </i>
   <i type="logical" name="LCHIMAG"> F  </i>
   <i type="logical" name="LGAUGE"> T  </i>
   <i type="int" name="MAGATOM">     0</i>
   <v name="MAGDIPOL">      0.00000000      0.00000000      0.00000000</v>
   <v name="AVECCONST">      0.00000000      0.00000000      0.00000000</v>
  </separator>
  <separator name="response functions" >
   <i type="logical" name="LADDER"> F  </i>
   <i type="logical" name="LHARTREE"> T  </i>
   <i type="int" name="IBSE">     0</i>
   <i type="logical" name="LTCTE"> F  </i>
   <i type="logical" name="LTETE"> F  </i>
   <i type="logical" name="LFXCEPS"> F  </i>
   <i type="logical" name="L2ORDER"> F  </i>
   <i type="logical" name="LUSEW"> F  </i>
   <i name="ENCUTGW">     -2.00000000</i>
   <i name="ENCUTGWSOFT">     -2.00000000</i>
   <i name="ENCUTLF">     -1.00000000</i>
   <i type="int" name="LMAXMP2">    -1</i>
   <i name="SCISSOR">      0.00000000</i>
   <i type="int" name="NOMEGA">     0</i>
   <i type="int" name="NOMEGAR">     0</i>
   <i type="int" name="NBANDSGW">    -1</i>
   <i type="int" name="NBANDSO">    -1</i>
   <i type="int" name="NBANDSV">    -1</i>
   <i name="OPTEMAX">      0.00000000</i>
   <i type="int" name="NELM">     1</i>
   <i type="int" name="DIM">     3</i>
   <i type="int" name="ANTIRES">     0</i>
   <i name="OMEGAMAX">    -30.00000000</i>
   <i name="OMEGATL">   -200.00000000</i>
   <i type="int" name="OMEGAGRID">     0</i>
   <i name="CSHIFT">     -0.10000000</i>
   <i type="logical" name="SELFENERGY"> F  </i>
   <i type="logical" name="LSPECTRAL"> F  </i>
   <i type="logical" name="ODDONLYGW"> F  </i>
   <i type="logical" name="EVENONLYGW"> F  </i>
   <i type="int" name="NKREDLFX">     1</i>
   <i type="int" name="NKREDLFY">     1</i>
   <i type="int" name="NKREDLFZ">     1</i>
   <i type="int" name="MAXMEM">  1800</i>
   <i type="int" name="TELESCOPE">     0</i>
  </separator>
 </parameters>
 <atominfo>
  <atoms>      40 </atoms>
  <types>       3 </types>
  <array name="atoms" >
   <dimension dim="1">ion</dimension>
   <field type="string">element</field>
   <field type="int">atomtype</field>
   <set>
    <rc><c>Ca</c><c>   1</c></rc>
    <rc><c>Ca</c><c>   1</c></rc>
    <rc><c>Ca</c><c>   1</c></rc>
    <rc><c>Ca</c><c>   1</c></rc>
    <rc><c>Ca</c><c>   1</c></rc>
    <rc><c>Ca</c><c>   1</c></rc>
    <rc><c>Ca</c><c>   1</c></rc>
    <rc><c>Ca</c><c>   1</c></rc>
    <rc><c>Ti</c><c>   2</c></rc>
    <rc><c>Ti</c><c>   2</c></rc>
    <rc><c>Ti</c><c>   2</c></rc>
    <rc><c>Ti</c><c>   2</c></rc>
    <rc><c>Ti</c><c>   2</c></rc>
    <rc><c>Ti</c><c>   2</c></rc>
    <rc><c>Ti</c><c>   2</c></rc>
    <rc><c>Ti</c><c>   2</c></rc>
    <rc><c>O </c><c>   3</c></rc>
    <rc><c>O </c><c>   3</c></rc>
    <rc><c>O </c><c>   3</c></rc>
    <rc><c>O </c><c>   3</c></rc>
    <rc><c>O </c><c>   3</c></rc>
    <rc><c>O </c><c>   3</c></rc>
    <rc><c>O </c><c>   3</c></rc>
    <rc><c>O </c><c>   3</c></rc>
    <rc><c>O </c><c>   3</c></rc>
    <rc><c>O </c><c>   3</c></rc>
    <rc><c>O </c><c>   3</c></rc>
    <rc><c>O </c><c>   3</c></rc>
    <rc><c>O </c><c>   3</c></rc>
    <rc><c>O </c><c>   3</c></rc>
    <rc><c>O </c><c>   3</c></rc>
    <rc><c>O </c><c>   3</c></rc>
    <rc><c>O </c><c>   3</c></rc>
    <rc><c>O </c><c>   3</c></rc>
    <rc><c>O </c><c>   3</c></rc>
    <rc><c>O </c><c>   3</c></rc>
    <rc><c>O </c><c>   3</c></rc>
    <rc><c>O </c><c>   3</c></rc>
    <rc><c>O </c><c>   3</c></rc>
    <rc><c>O </c><c>   3</c></rc>
   </set>
  </array>
  <array name="atomtypes" >
   <dimension dim="1">type</dimension>
   <field type="int">atomspertype</field>
   <field type="string">element</field>
   <field>mass</field>
   <field>valence</field>
   <field type="string">pseudopotential</field>
   <set>
    <rc><c>   8</c><c>Ca</c><c>     40.07800000</c><c>     10.00000000</c><c>  PAW_PBE Ca_sv 06Sep2000               </c></rc>
    <rc><c>   8</c><c>Ti</c><c>     47.88000000</c><c>     12.00000000</c><c>  PAW_PBE Ti_sv 26Sep2005               </c></rc>
    <rc><c>  24</c><c>O </c><c>     16.00000000</c><c>      6.00000000</c><c>  PAW_PBE O 08Apr2002                   </c></rc>
   </set>
  </array>
 </atominfo>
 <structure name="initialpos" >
  <crystal>
   <varray name="basis" >
    <v>       7.77065138       0.00000000       0.00000000 </v>
    <v>       0.00000000       7.77065138       0.00000000 </v>
    <v>       0.00000000       0.00000000       7.77065138 </v>
   </varray>
   <i name="volume">    469.21541999 </i>
   <varray name="rec_basis" >
    <v>       0.12868934       0.00000000       0.00000000 </v>
    <v>       0.00000000       0.12868934       0.00000000 </v>
    <v>       0.00000000       0.00000000       0.12868934 </v>
   </varray>
  </crystal>
  <varray name="positions" >
   <v>       0.00000000       0.00000000       0.00000000 </v>
   <v>       0.50000000       0.00000000       0.00000000 </v>
   <v>       0.00000000       0.50000000       0.00000000 </v>
   <v>       0.50000000       0.50000000       0.00000000 </v>
   <v>       0.00000000       0.00000000       0.50000000 </v>
   <v>       0.50000000       0.00000000       0.50000000 </v>
   <v>       0.00000000       0.50000000       0.50000000 </v>
   <v>       0.50000000       0.50000000       0.50000000 </v>
   <v>       0.25000000       0.25000000       0.25000000 </v>
   <v>       0.75000000       0.25000000       0.25000000 </v>
   <v>       0.25000000       0.75000000       0.25000000 </v>
   <v>       0.75000000       0.75000000       0.25000000 </v>
   <v>       0.25000000       0.25000000       0.75000000 </v>
   <v>       0.75000000       0.25000000       0.75000000 </v>
   <v>       0.25000000       0.75000000       0.75000000 </v>
   <v>       0.75000000       0.75000000       0.75000000 </v>
   <v>       0.00000000       0.25128689       0.25000000 </v>
   <v>       0.50000000       0.25000000       0.25000000 </v>
   <v>       0.00000000       0.75000000       0.25000000 </v>
   <v>       0.50000000       0.75000000       0.25000000 </v>
   <v>       0.00000000       0.25000000       0.75000000 </v>
   <v>       0.50000000       0.25000000       0.75000000 </v>
   <v>       0.00000000       0.75000000       0.75000000 </v>
   <v>       0.50000000       0.75000000       0.75000000 </v>
   <v>       0.25000000       0.00000000       0.25000000 </v>
   <v>       0.75000000       0.00000000       0.25000000 </v>
   <v>       0.25000000       0.50000000       0.25000000 </v>
   <v>       0.75000000       0.50000000       0.25000000 </v>
   <v>       0.25000000       0.00000000       0.75000000 </v>
   <v>       0.75000000       0.00000000       0.75000000 </v>
   <v>       0.25000000       0.50000000       0.75000000 </v>
   <v>       0.75000000       0.50000000       0.75000000 </v>
   <v>       0.25000000       0.25000000       0.00000000 </v>
   <v>       0.75000000       0.25000000       0.00000000 </v>
   <v>       0.25000000       0.75000000       0.00000000 </v>
   <v>       0.75000000       0.75000000       0.00000000 </v>
   <v>       0.25000000       0.25000000       0.50000000 </v>
   <v>       0.75000000       0.25000000       0.50000000 </v>
   <v>       0.25000000       0.75000000       0.50000000 </v>
   <v>       0.75000000       0.75000000       0.50000000 </v>
  </varray>
 </structure>
 <calculation>
  <scstep>
   <time name="dav">   52.14   52.38</time>
   <time name="total">   53.13   53.38</time>
   <energy>
    <i name="alphaZ">   1523.71370237 </i>
    <i name="ewald"> -23247.77623207 </i>
    <i name="hartreedc">  -7547.59958491 </i>
    <i name="XCdc">   1505.64663271 </i>
    <i name="pawpsdc">  24402.49706425 </i>
    <i name="pawaedc"> -24208.82971955 </i>
    <i name="eentropy">     -0.00130213 </i>
    <i name="bandstr">   1229.20594005 </i>
    <i name="atom">  31129.93749486 </i>
    <i name="e_fr_energy">   4786.79399557 </i>
    <i name="e_wo_entrp">   4786.79529770 </i>
    <i name="e_0_energy">   4786.79464663 </i>
   </energy>
  </scstep>
  <scstep>
   <time name="dav">   52.32   52.50</time>
   <time name="total">   52.32   52.51</time>
   <energy>
    <i name="e_fr_energy">    580.65877640 </i>
    <i name="e_wo_entrp">    580.65882833 </i>
    <i name="e_0_energy">    580.65880236 </i>
   </energy>
  </scstep>
  <scstep>
   <time name="dav">   61.05   61.27</time>
   <time name="total">   61.05   61.27</time>
   <energy>
    <i name="e_fr_energy">   -323.65691824 </i>
    <i name="e_wo_entrp">   -323.65691824 </i>
    <i name="e_0_energy">   -323.65691824 </i>
   </energy>
  </scstep>
  <scstep>
   <time name="dav">   66.25   66.49</time>
   <time name="total">   66.25   66.49</time>
   <energy>
    <i name="e_fr_energy">   -394.70361486 </i>
    <i name="e_wo_entrp">   -394.70361486 </i>
    <i name="e_0_energy">   -394.70361486 </i>
   </energy>
  </scstep>
  <scstep>
   <time name="dav">   79.27   79.55</time>
   <time name="total">   81.70   81.99</time>
   <energy>
    <i name="e_fr_energy">   -400.11252129 </i>
    <i name="e_wo_entrp">   -400.11252129 </i>
    <i name="e_0_energy">   -400.11252129 </i>
   </energy>
  </scstep>
  <scstep>
   <time name="dav">   70.20   70.46</time>
   <time name="total">   73.57   73.85</time>
   <energy>
    <i name="e_fr_energy">   -318.07378988 </i>
    <i name="e_wo_entrp">   -318.07378988 </i>
    <i name="e_0_energy">   -318.07378988 </i>
   </energy>
  </scstep>
  <scstep>
   <time name="dav">   64.86   65.09</time>
   <time name="total">   68.22   68.48</time>
   <energy>
    <i name="e_fr_energy">   -320.90559641 </i>
    <i name="e_wo_entrp">   -320.90559641 </i>
    <i name="e_0_energy">   -320.90559641 </i>
   </energy>
  </scstep>
  <scstep>
   <time name="dav">   67.15   67.39</time>
   <time name="total">   70.58   70.85</time>
   <energy>
    <i name="e_fr_energy">   -321.00113125 </i>
    <i name="e_wo_entrp">   -321.00113125 </i>
    <i name="e_0_energy">   -321.00113125 </i>
   </energy>
  </scstep>
  <scstep>
   <time name="dav">   68.20   68.45</time>
   <time name="total">   71.58   71.84</time>
   <energy>
    <i name="e_fr_energy">   -320.68954333 </i>
    <i name="e_wo_entrp">   -320.68954333 </i>
    <i name="e_0_energy">   -320.68954333 </i>
   </energy>
  </scstep>
  <scstep>
   <time name="dav">   64.93   65.17</time>
   <time name="total">   68.30   68.56</time>
   <energy>
    <i name="e_fr_energy">   -320.72701833 </i>
    <i name="e_wo_entrp">   -320.72701833 </i>
    <i name="e_0_energy">   -320.72701833 </i>
   </energy>
  </scstep>
  <scstep>
   <time name="dav">   61.92   62.14</time>
   <time name="total">   65.51   65.75</time>
   <energy>
    <i name="e_fr_energy">   -320.70733465 </i>
    <i name="e_wo_entrp">   -320.70733465 </i>
    <i name="e_0_energy">   -320.70733465 </i>
   </energy>
  </scstep>
  <scstep>
   <time name="dav">   67.22   67.56</time>
   <time name="total">   70.76   71.12</time>
   <energy>
    <i name="e_fr_energy">   -320.70626751 </i>
    <i name="e_wo_entrp">   -320.70626751 </i>
    <i name="e_0_energy">   -320.70626751 </i>
   </energy>
  </scstep>
  <scstep>
   <time name="dav">   66.98   67.32</time>
   <time name="total">   70.50   70.87</time>
   <energy>
    <i name="e_fr_energy">   -320.70598026 </i>
    <i name="e_wo_entrp">   -320.70598026 </i>
    <i name="e_0_energy">   -320.70598026 </i>
   </energy>
  </scstep>
  <scstep>
   <time name="dav">   67.92   68.27</time>
   <time name="total">   71.45   71.81</time>
   <energy>
    <i name="e_fr_energy">   -320.70599468 </i>
    <i name="e_wo_entrp">   -320.70599468 </i>
    <i name="e_0_energy">   -320.70599468 </i>
   </energy>
  </scstep>
  <scstep>
   <time name="dav">   69.18   69.43</time>
   <time name="total">   72.69   72.96</time>
   <energy>
    <i name="e_fr_energy">   -320.70600940 </i>
    <i name="e_wo_entrp">   -320.70600940 </i>
    <i name="e_0_energy">   -320.70600940 </i>
   </energy>
  </scstep>
  <scstep>
   <time name="dav">   65.74   66.02</time>
   <time name="total">   69.34   69.64</time>
   <energy>
    <i name="e_fr_energy">   -320.70600640 </i>
    <i name="e_wo_entrp">   -320.70600640 </i>
    <i name="e_0_energy">   -320.70600640 </i>
   </energy>
  </scstep>
  <scstep>
   <time name="dav">   69.36   69.65</time>
   <time name="total">   72.89   73.21</time>
   <energy>
    <i name="e_fr_energy">   -320.70600602 </i>
    <i name="e_wo_entrp">   -320.70600602 </i>
    <i name="e_0_energy">   -320.70600602 </i>
   </energy>
  </scstep>
  <scstep>
   <time name="dav">   65.98   66.24</time>
   <time name="total">   69.50   69.78</time>
   <energy>
    <i name="e_fr_energy">   -320.70600604 </i>
    <i name="e_wo_entrp">   -320.70600604 </i>
    <i name="e_0_energy">   -320.70600604 </i>
   </energy>
  </scstep>
  <scstep>
   <time name="dav">   60.64   60.87</time>
   <time name="total">   64.18   64.44</time>
   <energy>
    <i name="e_fr_energy">   -320.70600594 </i>
    <i name="e_wo_entrp">   -320.70600594 </i>
    <i name="e_0_energy">   -320.70600594 </i>
   </energy>
  </scstep>
  <scstep>
   <time name="dav">   48.62   48.80</time>
   <time name="total">   52.13   52.32</time>
   <energy>
    <i name="e_fr_energy">   -320.70600587 </i>
    <i name="e_wo_entrp">   -320.70600587 </i>
    <i name="e_0_energy">   -320.70600587 </i>
   </energy>
  </scstep>
  <scstep>
   <time name="dav">   45.74   45.91</time>
   <time name="total">   49.26   49.44</time>
   <energy>
    <i name="e_fr_energy">   -320.70600582 </i>
    <i name="e_wo_entrp">   -320.70600582 </i>
    <i name="e_0_energy">   -320.70600582 </i>
   </energy>
  </scstep>
  <scstep>
   <time name="dav">   34.62   34.74</time>
   <time name="total">   38.13   38.28</time>
   <energy>
    <i name="e_fr_energy">   -320.70600580 </i>
    <i name="e_wo_entrp">   -320.70600580 </i>
    <i name="e_0_energy">   -320.70600580 </i>
   </energy>
  </scstep>
  <scstep>
   <time name="dav">   34.05   34.17</time>
   <time name="total">   35.03   35.16</time>
   <energy>
    <i name="alphaZ">   1523.71370237 </i>
    <i name="ewald"> -23247.77623207 </i>
    <i name="hartreedc">  -7520.08145806 </i>
    <i name="XCdc">   1515.29522207 </i>
    <i name="pawpsdc">  31843.66022862 </i>
    <i name="pawaedc"> -31698.68747960 </i>
    <i name="eentropy">      0.00000000 </i>
    <i name="bandstr">  -3866.76748398 </i>
    <i name="atom">  31129.93749486 </i>
    <i name="e_fr_energy">   -320.70600579 </i>
    <i name="e_wo_entrp">   -320.70600579 </i>
    <i name="e_0_energy">   -320.70600579 </i>
   </energy>
  </scstep>
  <parameters_embedded>
   <separator name="dft+d2" >
    <i type="logical" name="LVDW"> F  </i>
   </separator>
  </parameters_embedded>
  <structure>
   <crystal>
    <varray name="basis" >
     <v>       7.77065138       0.00000000       0.00000000 </v>
     <v>       0.00000000       7.77065138       0.00000000 </v>
     <v>       0.00000000       0.00000000       7.77065138 </v>
    </varray>
    <i name="volume">    469.21541999 </i>
    <varray name="rec_basis" >
     <v>       0.12868934       0.00000000       0.00000000 </v>
     <v>       0.00000000       0.12868934       0.00000000 </v>
     <v>       0.00000000       0.00000000       0.12868934 </v>
    </varray>
   </crystal>
   <varray name="positions" >
    <v>       0.00000000       0.00000000       0.00000000 </v>
    <v>       0.50000000       0.00000000       0.00000000 </v>
    <v>       0.00000000       0.50000000       0.00000000 </v>
    <v>       0.50000000       0.50000000       0.00000000 </v>
    <v>       0.00000000       0.00000000       0.50000000 </v>
    <v>       0.50000000       0.00000000       0.50000000 </v>
    <v>       0.00000000       0.50000000       0.50000000 </v>
    <v>       0.50000000       0.50000000       0.50000000 </v>
    <v>       0.25000000       0.25000000       0.25000000 </v>
    <v>       0.75000000       0.25000000       0.25000000 </v>
    <v>       0.25000000       0.75000000       0.25000000 </v>
    <v>       0.75000000       0.75000000       0.25000000 </v>
    <v>       0.25000000       0.25000000       0.75000000 </v>
    <v>       0.75000000       0.25000000       0.75000000 </v>
    <v>       0.25000000       0.75000000       0.75000000 </v>
    <v>       0.75000000       0.75000000       0.75000000 </v>
    <v>       0.00000000       0.25128689       0.25000000 </v>
    <v>       0.50000000       0.25000000       0.25000000 </v>
    <v>       0.00000000       0.75000000       0.25000000 </v>
    <v>       0.50000000       0.75000000       0.25000000 </v>
    <v>       0.00000000       0.25000000       0.75000000 </v>
    <v>       0.50000000       0.25000000       0.75000000 </v>
    <v>       0.00000000       0.75000000       0.75000000 </v>
    <v>       0.50000000       0.75000000       0.75000000 </v>
    <v>       0.25000000       0.00000000       0.25000000 </v>
    <v>       0.75000000       0.00000000       0.25000000 </v>
    <v>       0.25000000       0.50000000       0.25000000 </v>
    <v>       0.75000000       0.50000000       0.25000000 </v>
    <v>       0.25000000       0.00000000       0.75000000 </v>
    <v>       0.75000000       0.00000000       0.75000000 </v>
    <v>       0.25000000       0.50000000       0.75000000 </v>
    <v>       0.75000000       0.50000000       0.75000000 </v>
    <v>       0.25000000       0.25000000       0.00000000 </v>
    <v>       0.75000000       0.25000000       0.00000000 </v>
    <v>       0.25000000       0.75000000       0.00000000 </v>
    <v>       0.75000000       0.75000000       0.00000000 </v>
    <v>       0.25000000       0.25000000       0.50000000 </v>
    <v>       0.75000000       0.25000000       0.50000000 </v>
    <v>       0.25000000       0.75000000       0.50000000 </v>
    <v>       0.75000000       0.75000000       0.50000000 </v>
   </varray>
  </structure>
  <varray name="forces" >
   <v>       0.00000000      -0.00350181      -0.00710570 </v>
   <v>       0.00000000       0.00019832      -0.00169544 </v>
   <v>       0.00000000      -0.00338930       0.00706863 </v>
   <v>       0.00000000       0.00025289       0.00169906 </v>
   <v>       0.00000000      -0.00350181       0.00710570 </v>
   <v>       0.00000000       0.00019832       0.00169544 </v>
   <v>       0.00000000      -0.00338930      -0.00706863 </v>
   <v>       0.00000000       0.00025289      -0.00169906 </v>
   <v>      -0.00018557       0.01306833       0.00000000 </v>
   <v>       0.00018557       0.01306833       0.00000000 </v>
   <v>      -0.00002033      -0.01875371       0.00000000 </v>
   <v>       0.00002033      -0.01875371       0.00000000 </v>
   <v>      -0.00001059       0.00122206       0.00000000 </v>
   <v>       0.00001059       0.00122206       0.00000000 </v>
   <v>      -0.00001463      -0.00111995       0.00000000 </v>
   <v>       0.00001463      -0.00111995       0.00000000 </v>
   <v>       0.00000000      -0.03971543       0.00000000 </v>
   <v>       0.00000000       0.00400568       0.00000000 </v>
   <v>       0.00000000       0.00488152       0.00000000 </v>
   <v>       0.00000000       0.00671015       0.00000000 </v>
   <v>       0.00000000      -0.00158419       0.00000000 </v>
   <v>       0.00000000      -0.00005504       0.00000000 </v>
   <v>       0.00000000       0.00223619       0.00000000 </v>
   <v>       0.00000000       0.00039363       0.00000000 </v>
   <v>      -0.01593467       0.01486242       0.00000000 </v>
   <v>       0.01593467       0.01486242       0.00000000 </v>
   <v>       0.01618180       0.01491877       0.00000000 </v>
   <v>      -0.01618180       0.01491877       0.00000000 </v>
   <v>      -0.00052068      -0.00002871       0.00000000 </v>
   <v>       0.00052068      -0.00002871       0.00000000 </v>
   <v>       0.00053347      -0.00006795       0.00000000 </v>
   <v>      -0.00053347      -0.00006795       0.00000000 </v>
   <v>      -0.00003340      -0.00498892       0.00006211 </v>
   <v>       0.00003340      -0.00498892       0.00006211 </v>
   <v>       0.00000466       0.00194010      -0.00001179 </v>
   <v>      -0.00000466       0.00194010      -0.00001179 </v>
   <v>      -0.00003340      -0.00498892      -0.00006211 </v>
   <v>       0.00003340      -0.00498892      -0.00006211 </v>
   <v>       0.00000466       0.00194010       0.00001179 </v>
   <v>      -0.00000466       0.00194010       0.00001179 </v>
  </varray>
  <varray name="stress" >
   <v>      -0.10471993       0.00000000       0.00000000 </v>
   <v>       0.00000000      -0.10181922       0.00000000 </v>
   <v>       0.00000000       0.00000000      -0.10282723 </v>
  </varray>
  <energy>
   <i name="e_fr_energy">   -320.70600579 </i>
   <i name="e_wo_entrp">   -320.70600579 </i>
   <i name="e_0_energy">      0.00000000 </i>
  </energy>
  <time name="totalsc"> 1535.43 1541.59</time>
  <eigenvalues>
   <array>
    <dimension dim="1">band</dimension>
    <dimension dim="2">kpoint</dimension>
    <dimension dim="3">spin</dimension>
    <field>eigene</field>
    <field>occ</field>
    <set>
     <set comment="spin 1">
      <set comment="kpoint 1">
       <r>  -52.2079    1.0000 </r>
       <r>  -52.2062    1.0000 </r>
       <r>  -52.2062    1.0000 </r>
       <r>  -52.2062    1.0000 </r>
       <r>  -52.2046    1.0000 </r>
       <r>  -52.2046    1.0000 </r>
       <r>  -52.2046    1.0000 </r>
       <r>  -52.2029    1.0000 </r>
       <r>  -35.1012    1.0000 </r>
       <r>  -35.0957    1.0000 </r>
       <r>  -35.0956    1.0000 </r>
       <r>  -35.0923    1.0000 </r>
       <r>  -35.0897    1.0000 </r>
       <r>  -35.0863    1.0000 </r>
       <r>  -35.0863    1.0000 </r>
       <r>  -35.0808    1.0000 </r>
       <r>  -28.5315    1.0000 </r>
       <r>  -28.5314    1.0000 </r>
       <r>  -28.5314    1.0000 </r>
       <r>  -28.5298    1.0000 </r>
       <r>  -28.5297    1.0000 </r>
       <r>  -28.5297    1.0000 </r>
       <r>  -28.5297    1.0000 </r>
       <r>  -28.5297    1.0000 </r>
       <r>  -28.5297    1.0000 </r>
       <r>  -28.5258    1.0000 </r>
       <r>  -28.5258    1.0000 </r>
       <r>  -28.5258    1.0000 </r>
       <r>  -28.4566    1.0000 </r>
       <r>  -28.4566    1.0000 </r>
       <r>  -28.4566    1.0000 </r>
       <r>  -28.4536    1.0000 </r>
       <r>  -28.4535    1.0000 </r>
       <r>  -28.4535    1.0000 </r>
       <r>  -28.4535    1.0000 </r>
       <r>  -28.4535    1.0000 </r>
       <r>  -28.4534    1.0000 </r>
       <r>  -28.4506    1.0000 </r>
       <r>  -28.4506    1.0000 </r>
       <r>  -28.4505    1.0000 </r>
       <r>  -16.2792    1.0000 </r>
       <r>  -16.2792    1.0000 </r>
       <r>  -16.2792    1.0000 </r>
       <r>  -16.1815    1.0000 </r>
       <r>  -16.1796    1.0000 </r>
       <r>  -16.1795    1.0000 </r>
       <r>  -16.1795    1.0000 </r>
       <r>  -16.1794    1.0000 </r>
       <r>  -16.1776    1.0000 </r>
       <r>  -16.1290    1.0000 </r>
       <r>  -16.1288    1.0000 </r>
       <r>  -16.1287    1.0000 </r>
       <r>  -16.0565    1.0000 </r>
       <r>  -16.0561    1.0000 </r>
       <r>  -16.0554    1.0000 </r>
       <r>  -16.0470    1.0000 </r>
       <r>  -16.0455    1.0000 </r>
       <r>  -16.0450    1.0000 </r>
       <r>  -16.0449    1.0000 </r>
       <r>  -16.0444    1.0000 </r>
       <r>  -16.0429    1.0000 </r>
       <r>  -16.0322    1.0000 </r>
       <r>  -16.0318    1.0000 </r>
       <r>  -16.0314    1.0000 </r>
       <r>  -13.2770    1.0000 </r>
       <r>  -12.6597    1.0000 </r>
       <r>  -12.6597    1.0000 </r>
       <r>  -12.6597    1.0000 </r>
       <r>  -12.5429    1.0000 </r>
       <r>  -12.5429    1.0000 </r>
       <r>  -12.5429    1.0000 </r>
       <r>  -12.2107    1.0000 </r>
       <r>  -12.2107    1.0000 </r>
       <r>  -12.1727    1.0000 </r>
       <r>  -12.1727    1.0000 </r>
       <r>  -12.1727    1.0000 </r>
       <r>  -11.8897    1.0000 </r>
       <r>  -11.8888    1.0000 </r>
       <r>  -11.8880    1.0000 </r>
       <r>  -11.8180    1.0000 </r>
       <r>  -11.8180    1.0000 </r>
       <r>  -11.8180    1.0000 </r>
       <r>  -11.7318    1.0000 </r>
       <r>  -11.7310    1.0000 </r>
       <r>  -11.7310    1.0000 </r>
       <r>  -11.7309    1.0000 </r>
       <r>  -11.7309    1.0000 </r>
       <r>  -11.7301    1.0000 </r>
       <r>   -0.5325    1.0000 </r>
       <r>   -0.5320    1.0000 </r>
       <r>   -0.5315    1.0000 </r>
       <r>   -0.3709    1.0000 </r>
       <r>   -0.2841    1.0000 </r>
       <r>   -0.2841    1.0000 </r>
       <r>   -0.2841    1.0000 </r>
       <r>   -0.1287    1.0000 </r>
       <r>   -0.1287    1.0000 </r>
       <r>   -0.1287    1.0000 </r>
       <r>   -0.0393    1.0000 </r>
       <r>   -0.0393    1.0000 </r>
       <r>   -0.0393    1.0000 </r>
       <r>    0.0072    1.0000 </r>
       <r>    0.0072    1.0000 </r>
       <r>    0.0072    1.0000 </r>
       <r>    0.0246    1.0000 </r>
       <r>    0.0246    1.0000 </r>
       <r>    1.2165    1.0000 </r>
       <r>    1.2165    1.0000 </r>
       <r>    1.2165    1.0000 </r>
       <r>    1.4536    1.0000 </r>
       <r>    1.4536    1.0000 </r>
       <r>    1.4538    1.0000 </r>
       <r>    1.4539    1.0000 </r>
       <r>    1.4539    1.0000 </r>
       <r>    1.4541    1.0000 </r>
       <r>    1.4755    1.0000 </r>
       <r>    1.4767    1.0000 </r>
       <r>    1.4767    1.0000 </r>
       <r>    1.4767    1.0000 </r>
       <r>    1.4768    1.0000 </r>
       <r>    1.4779    1.0000 </r>
       <r>    1.5713    1.0000 </r>
       <r>    1.5715    1.0000 </r>
       <r>    1.5716    1.0000 </r>
       <r>    1.7344    1.0000 </r>
       <r>    1.7357    1.0000 </r>
       <r>    1.7357    1.0000 </r>
       <r>    1.7357    1.0000 </r>
       <r>    1.7358    1.0000 </r>
       <r>    1.7370    1.0000 </r>
       <r>    2.3585    1.0000 </r>
       <r>    2.3608    1.0000 </r>
       <r>    2.3617    1.0000 </r>
       <r>    2.3653    1.0000 </r>
       <r>    2.3667    1.0000 </r>
       <r>    2.3667    1.0000 </r>
       <r>    2.3667    1.0000 </r>
       <r>    2.3667    1.0000 </r>
       <r>    2.3694    1.0000 </r>
       <r>    2.5540    1.0000 </r>
       <r>    2.5556    1.0000 </r>
       <r>    2.5573    1.0000 </r>
       <r>    3.1292    1.0000 </r>
       <r>    3.1292    1.0000 </r>
       <r>    3.1292    1.0000 </r>
       <r>    3.5483    1.0000 </r>
       <r>    3.5491    1.0000 </r>
       <r>    3.5491    1.0000 </r>
       <r>    3.5491    1.0000 </r>
       <r>    3.5491    1.0000 </r>
       <r>    3.5499    1.0000 </r>
       <r>    3.8332    1.0000 </r>
       <r>    3.8332    1.0000 </r>
       <r>    3.8332    1.0000 </r>
       <r>    4.2002    1.0000 </r>
       <r>    4.2003    1.0000 </r>
       <r>    4.2004    1.0000 </r>
       <r>    4.2952    1.0000 </r>
       <r>    4.2952    1.0000 </r>
       <r>    4.2952    1.0000 </r>
       <r>    6.1355    0.0000 </r>
       <r>    6.1355    0.0000 </r>
       <r>    6.1356    0.0000 </r>
       <r>    6.3158    0.0000 </r>
       <r>    6.3159    0.0000 </r>
       <r>    6.3159    0.0000 </r>
       <r>    8.0909    0.0000 </r>
       <r>    8.0921    0.0000 </r>
       <r>    8.0922    0.0000 </r>
       <r>    8.0922    0.0000 </r>
       <r>    8.0922    0.0000 </r>
       <r>    8.0929    0.0000 </r>
       <r>    8.0941    0.0000 </r>
       <r>    8.0941    0.0000 </r>
       <r>    8.0942    0.0000 </r>
       <r>    8.0942    0.0000 </r>
       <r>    8.0943    0.0000 </r>
       <r>    8.0947    0.0000 </r>
       <r>    8.4920    0.0000 </r>
       <r>    8.4924    0.0000 </r>
       <r>    8.4928    0.0000 </r>
       <r>    8.6060    0.0000 </r>
       <r>    8.6060    0.0000 </r>
       <r>    8.6474    0.0000 </r>
       <r>    8.6474    0.0000 </r>
       <r>    8.6474    0.0000 </r>
       <r>    8.7356    0.0000 </r>
       <r>    8.7357    0.0000 </r>
       <r>    8.7357    0.0000 </r>
       <r>    9.0056    0.0000 </r>
       <r>    9.0056    0.0000 </r>
       <r>    9.4564    0.0000 </r>
      </set>
      <set comment="kpoint 2">
       <r>  -52.2071    1.0000 </r>
       <r>  -52.2071    1.0000 </r>
       <r>  -52.2054    1.0000 </r>
       <r>  -52.2054    1.0000 </r>
       <r>  -52.2054    1.0000 </r>
       <r>  -52.2054    1.0000 </r>
       <r>  -52.2038    1.0000 </r>
       <r>  -52.2038    1.0000 </r>
       <r>  -35.0996    1.0000 </r>
       <r>  -35.0969    1.0000 </r>
       <r>  -35.0938    1.0000 </r>
       <r>  -35.0911    1.0000 </r>
       <r>  -35.0909    1.0000 </r>
       <r>  -35.0882    1.0000 </r>
       <r>  -35.0851    1.0000 </r>
       <r>  -35.0824    1.0000 </r>
       <r>  -28.5306    1.0000 </r>
       <r>  -28.5306    1.0000 </r>
       <r>  -28.5306    1.0000 </r>
       <r>  -28.5306    1.0000 </r>
       <r>  -28.5278    1.0000 </r>
       <r>  -28.5278    1.0000 </r>
       <r>  -28.5278    1.0000 </r>
       <r>  -28.5278    1.0000 </r>
       <r>  -28.4942    1.0000 </r>
       <r>  -28.4942    1.0000 </r>
       <r>  -28.4918    1.0000 </r>
       <r>  -28.4918    1.0000 </r>
       <r>  -28.4918    1.0000 </r>
       <r>  -28.4918    1.0000 </r>
       <r>  -28.4884    1.0000 </r>
       <r>  -28.4884    1.0000 </r>
       <r>  -28.4550    1.0000 </r>
       <r>  -28.4550    1.0000 </r>
       <r>  -28.4550    1.0000 </r>
       <r>  -28.4550    1.0000 </r>
       <r>  -28.4520    1.0000 </r>
       <r>  -28.4520    1.0000 </r>
       <r>  -28.4520    1.0000 </r>
       <r>  -28.4520    1.0000 </r>
       <r>  -16.2295    1.0000 </r>
       <r>  -16.2293    1.0000 </r>
       <r>  -16.2293    1.0000 </r>
       <r>  -16.2293    1.0000 </r>
       <r>  -16.1726    1.0000 </r>
       <r>  -16.1723    1.0000 </r>
       <r>  -16.1546    1.0000 </r>
       <r>  -16.1545    1.0000 </r>
       <r>  -16.1545    1.0000 </r>
       <r>  -16.1541    1.0000 </r>
       <r>  -16.1139    1.0000 </r>
       <r>  -16.1134    1.0000 </r>
       <r>  -16.1134    1.0000 </r>
       <r>  -16.1130    1.0000 </r>
       <r>  -16.0809    1.0000 </r>
       <r>  -16.0803    1.0000 </r>
       <r>  -16.0522    1.0000 </r>
       <r>  -16.0503    1.0000 </r>
       <r>  -16.0503    1.0000 </r>
       <r>  -16.0501    1.0000 </r>
       <r>  -16.0387    1.0000 </r>
       <r>  -16.0386    1.0000 </r>
       <r>  -16.0385    1.0000 </r>
       <r>  -16.0367    1.0000 </r>
       <r>  -12.9687    1.0000 </r>
       <r>  -12.9687    1.0000 </r>
       <r>  -12.5527    1.0000 </r>
       <r>  -12.5527    1.0000 </r>
       <r>  -12.5527    1.0000 </r>
       <r>  -12.5527    1.0000 </r>
       <r>  -12.1972    1.0000 </r>
       <r>  -12.1971    1.0000 </r>
       <r>  -12.1914    1.0000 </r>
       <r>  -12.1914    1.0000 </r>
       <r>  -12.0576    1.0000 </r>
       <r>  -12.0576    1.0000 </r>
       <r>  -12.0158    1.0000 </r>
       <r>  -12.0158    1.0000 </r>
       <r>  -12.0158    1.0000 </r>
       <r>  -12.0158    1.0000 </r>
       <r>  -11.8095    1.0000 </r>
       <r>  -11.8095    1.0000 </r>
       <r>  -11.8095    1.0000 </r>
       <r>  -11.8095    1.0000 </r>
       <r>  -11.7743    1.0000 </r>
       <r>  -11.7743    1.0000 </r>
       <r>  -11.7743    1.0000 </r>
       <r>  -11.7743    1.0000 </r>
       <r>   -0.2906    1.0000 </r>
       <r>   -0.2906    1.0000 </r>
       <r>   -0.2643    1.0000 </r>
       <r>   -0.2643    1.0000 </r>
       <r>   -0.1410    1.0000 </r>
       <r>   -0.1410    1.0000 </r>
       <r>   -0.1410    1.0000 </r>
       <r>   -0.1410    1.0000 </r>
       <r>    0.0158    1.0000 </r>
       <r>    0.0159    1.0000 </r>
       <r>    0.1185    1.0000 </r>
       <r>    0.1186    1.0000 </r>
       <r>    0.1186    1.0000 </r>
       <r>    0.1186    1.0000 </r>
       <r>    0.4581    1.0000 </r>
       <r>    0.4583    1.0000 </r>
       <r>    0.4583    1.0000 </r>
       <r>    0.4583    1.0000 </r>
       <r>    0.5893    1.0000 </r>
       <r>    0.5894    1.0000 </r>
       <r>    0.7961    1.0000 </r>
       <r>    0.7961    1.0000 </r>
       <r>    0.7961    1.0000 </r>
       <r>    0.7963    1.0000 </r>
       <r>    1.0843    1.0000 </r>
       <r>    1.0844    1.0000 </r>
       <r>    1.2634    1.0000 </r>
       <r>    1.2634    1.0000 </r>
       <r>    1.2634    1.0000 </r>
       <r>    1.2635    1.0000 </r>
       <r>    1.4693    1.0000 </r>
       <r>    1.4693    1.0000 </r>
       <r>    1.4693    1.0000 </r>
       <r>    1.4694    1.0000 </r>
       <r>    1.5911    1.0000 </r>
       <r>    1.5911    1.0000 </r>
       <r>    1.5911    1.0000 </r>
       <r>    1.5911    1.0000 </r>
       <r>    2.1630    1.0000 </r>
       <r>    2.1630    1.0000 </r>
       <r>    2.1630    1.0000 </r>
       <r>    2.1630    1.0000 </r>
       <r>    2.4277    1.0000 </r>
       <r>    2.4279    1.0000 </r>
       <r>    2.4475    1.0000 </r>
       <r>    2.4475    1.0000 </r>
       <r>    2.4475    1.0000 </r>
       <r>    2.4477    1.0000 </r>
       <r>    2.6680    1.0000 </r>
       <r>    2.6680    1.0000 </r>
       <r>    2.6680    1.0000 </r>
       <r>    2.6680    1.0000 </r>
       <r>    2.7136    1.0000 </r>
       <r>    2.7136    1.0000 </r>
       <r>    2.9549    1.0000 </r>
       <r>    2.9549    1.0000 </r>
       <r>    2.9549    1.0000 </r>
       <r>    2.9549    1.0000 </r>
       <r>    3.5848    1.0000 </r>
       <r>    3.5848    1.0000 </r>
       <r>    3.5848    1.0000 </r>
       <r>    3.5849    1.0000 </r>
       <r>    3.6223    1.0000 </r>
       <r>    3.6223    1.0000 </r>
       <r>    3.6223    1.0000 </r>
       <r>    3.6224    1.0000 </r>
       <r>    3.6384    1.0000 </r>
       <r>    3.6384    1.0000 </r>
       <r>    3.6384    1.0000 </r>
       <r>    3.6384    1.0000 </r>
       <r>    4.2471    1.0000 </r>
       <r>    4.2471    1.0000 </r>
       <r>    6.2228    0.0000 </r>
       <r>    6.2229    0.0000 </r>
       <r>    7.2091    0.0000 </r>
       <r>    7.2092    0.0000 </r>
       <r>    7.2092    0.0000 </r>
       <r>    7.2092    0.0000 </r>
       <r>    7.2793    0.0000 </r>
       <r>    7.2793    0.0000 </r>
       <r>    7.2794    0.0000 </r>
       <r>    7.2794    0.0000 </r>
       <r>    8.0915    0.0000 </r>
       <r>    8.0915    0.0000 </r>
       <r>    8.0915    0.0000 </r>
       <r>    8.0915    0.0000 </r>
       <r>    8.1689    0.0000 </r>
       <r>    8.1689    0.0000 </r>
       <r>    8.1689    0.0000 </r>
       <r>    8.1689    0.0000 </r>
       <r>    8.3444    0.0000 </r>
       <r>    8.3444    0.0000 </r>
       <r>    8.3444    0.0000 </r>
       <r>    8.3444    0.0000 </r>
       <r>    8.6120    0.0000 </r>
       <r>    8.6120    0.0000 </r>
       <r>    8.6379    0.0000 </r>
       <r>    8.6379    0.0000 </r>
       <r>    9.3969    0.0000 </r>
       <r>    9.3969    0.0000 </r>
       <r>    9.3969    0.0000 </r>
       <r>    9.4223    0.0000 </r>
       <r>    9.5508    0.0000 </r>
       <r>    9.5652    0.0000 </r>
      </set>
      <set comment="kpoint 3">
       <r>  -52.2071    1.0000 </r>
       <r>  -52.2071    1.0000 </r>
       <r>  -52.2054    1.0000 </r>
       <r>  -52.2054    1.0000 </r>
       <r>  -52.2054    1.0000 </r>
       <r>  -52.2054    1.0000 </r>
       <r>  -52.2038    1.0000 </r>
       <r>  -52.2038    1.0000 </r>
       <r>  -35.1003    1.0000 </r>
       <r>  -35.0946    1.0000 </r>
       <r>  -35.0945    1.0000 </r>
       <r>  -35.0932    1.0000 </r>
       <r>  -35.0888    1.0000 </r>
       <r>  -35.0875    1.0000 </r>
       <r>  -35.0874    1.0000 </r>
       <r>  -35.0817    1.0000 </r>
       <r>  -28.5306    1.0000 </r>
       <r>  -28.5306    1.0000 </r>
       <r>  -28.5305    1.0000 </r>
       <r>  -28.5305    1.0000 </r>
       <r>  -28.5278    1.0000 </r>
       <r>  -28.5278    1.0000 </r>
       <r>  -28.5278    1.0000 </r>
       <r>  -28.5278    1.0000 </r>
       <r>  -28.4943    1.0000 </r>
       <r>  -28.4942    1.0000 </r>
       <r>  -28.4918    1.0000 </r>
       <r>  -28.4918    1.0000 </r>
       <r>  -28.4918    1.0000 </r>
       <r>  -28.4918    1.0000 </r>
       <r>  -28.4884    1.0000 </r>
       <r>  -28.4884    1.0000 </r>
       <r>  -28.4550    1.0000 </r>
       <r>  -28.4550    1.0000 </r>
       <r>  -28.4550    1.0000 </r>
       <r>  -28.4550    1.0000 </r>
       <r>  -28.4520    1.0000 </r>
       <r>  -28.4520    1.0000 </r>
       <r>  -28.4520    1.0000 </r>
       <r>  -28.4520    1.0000 </r>
       <r>  -16.2320    1.0000 </r>
       <r>  -16.2319    1.0000 </r>
       <r>  -16.2267    1.0000 </r>
       <r>  -16.2266    1.0000 </r>
       <r>  -16.1748    1.0000 </r>
       <r>  -16.1699    1.0000 </r>
       <r>  -16.1572    1.0000 </r>
       <r>  -16.1571    1.0000 </r>
       <r>  -16.1519    1.0000 </r>
       <r>  -16.1516    1.0000 </r>
       <r>  -16.1161    1.0000 </r>
       <r>  -16.1159    1.0000 </r>
       <r>  -16.1108    1.0000 </r>
       <r>  -16.1107    1.0000 </r>
       <r>  -16.0835    1.0000 </r>
       <r>  -16.0781    1.0000 </r>
       <r>  -16.0536    1.0000 </r>
       <r>  -16.0529    1.0000 </r>
       <r>  -16.0476    1.0000 </r>
       <r>  -16.0476    1.0000 </r>
       <r>  -16.0413    1.0000 </r>
       <r>  -16.0413    1.0000 </r>
       <r>  -16.0360    1.0000 </r>
       <r>  -16.0353    1.0000 </r>
       <r>  -12.9688    1.0000 </r>
       <r>  -12.9686    1.0000 </r>
       <r>  -12.5531    1.0000 </r>
       <r>  -12.5530    1.0000 </r>
       <r>  -12.5523    1.0000 </r>
       <r>  -12.5523    1.0000 </r>
       <r>  -12.1995    1.0000 </r>
       <r>  -12.1949    1.0000 </r>
       <r>  -12.1914    1.0000 </r>
       <r>  -12.1913    1.0000 </r>
       <r>  -12.0598    1.0000 </r>
       <r>  -12.0556    1.0000 </r>
       <r>  -12.0180    1.0000 </r>
       <r>  -12.0177    1.0000 </r>
       <r>  -12.0138    1.0000 </r>
       <r>  -12.0134    1.0000 </r>
       <r>  -11.8099    1.0000 </r>
       <r>  -11.8095    1.0000 </r>
       <r>  -11.8095    1.0000 </r>
       <r>  -11.8091    1.0000 </r>
       <r>  -11.7745    1.0000 </r>
       <r>  -11.7743    1.0000 </r>
       <r>  -11.7743    1.0000 </r>
       <r>  -11.7741    1.0000 </r>
       <r>   -0.2908    1.0000 </r>
       <r>   -0.2904    1.0000 </r>
       <r>   -0.2644    1.0000 </r>
       <r>   -0.2643    1.0000 </r>
       <r>   -0.1411    1.0000 </r>
       <r>   -0.1410    1.0000 </r>
       <r>   -0.1409    1.0000 </r>
       <r>   -0.1408    1.0000 </r>
       <r>    0.0159    1.0000 </r>
       <r>    0.0159    1.0000 </r>
       <r>    0.1177    1.0000 </r>
       <r>    0.1178    1.0000 </r>
       <r>    0.1194    1.0000 </r>
       <r>    0.1194    1.0000 </r>
       <r>    0.4574    1.0000 </r>
       <r>    0.4579    1.0000 </r>
       <r>    0.4587    1.0000 </r>
       <r>    0.4591    1.0000 </r>
       <r>    0.5885    1.0000 </r>
       <r>    0.5901    1.0000 </r>
       <r>    0.7945    1.0000 </r>
       <r>    0.7953    1.0000 </r>
       <r>    0.7970    1.0000 </r>
       <r>    0.7978    1.0000 </r>
       <r>    1.0826    1.0000 </r>
       <r>    1.0862    1.0000 </r>
       <r>    1.2626    1.0000 </r>
       <r>    1.2630    1.0000 </r>
       <r>    1.2638    1.0000 </r>
       <r>    1.2643    1.0000 </r>
       <r>    1.4678    1.0000 </r>
       <r>    1.4687    1.0000 </r>
       <r>    1.4699    1.0000 </r>
       <r>    1.4708    1.0000 </r>
       <r>    1.5907    1.0000 </r>
       <r>    1.5911    1.0000 </r>
       <r>    1.5912    1.0000 </r>
       <r>    1.5915    1.0000 </r>
       <r>    2.1625    1.0000 </r>
       <r>    2.1628    1.0000 </r>
       <r>    2.1631    1.0000 </r>
       <r>    2.1634    1.0000 </r>
       <r>    2.4265    1.0000 </r>
       <r>    2.4293    1.0000 </r>
       <r>    2.4447    1.0000 </r>
       <r>    2.4453    1.0000 </r>
       <r>    2.4497    1.0000 </r>
       <r>    2.4502    1.0000 </r>
       <r>    2.6664    1.0000 </r>
       <r>    2.6678    1.0000 </r>
       <r>    2.6682    1.0000 </r>
       <r>    2.6696    1.0000 </r>
       <r>    2.7132    1.0000 </r>
       <r>    2.7141    1.0000 </r>
       <r>    2.9507    1.0000 </r>
       <r>    2.9545    1.0000 </r>
       <r>    2.9553    1.0000 </r>
       <r>    2.9591    1.0000 </r>
       <r>    3.5814    1.0000 </r>
       <r>    3.5837    1.0000 </r>
       <r>    3.5859    1.0000 </r>
       <r>    3.5878    1.0000 </r>
       <r>    3.6192    1.0000 </r>
       <r>    3.6213    1.0000 </r>
       <r>    3.6233    1.0000 </r>
       <r>    3.6260    1.0000 </r>
       <r>    3.6371    1.0000 </r>
       <r>    3.6383    1.0000 </r>
       <r>    3.6386    1.0000 </r>
       <r>    3.6398    1.0000 </r>
       <r>    4.2470    1.0000 </r>
       <r>    4.2472    1.0000 </r>
       <r>    6.2228    0.0000 </r>
       <r>    6.2229    0.0000 </r>
       <r>    7.2084    0.0000 </r>
       <r>    7.2091    0.0000 </r>
       <r>    7.2093    0.0000 </r>
       <r>    7.2101    0.0000 </r>
       <r>    7.2785    0.0000 </r>
       <r>    7.2792    0.0000 </r>
       <r>    7.2796    0.0000 </r>
       <r>    7.2804    0.0000 </r>
       <r>    8.0912    0.0000 </r>
       <r>    8.0915    0.0000 </r>
       <r>    8.0915    0.0000 </r>
       <r>    8.0917    0.0000 </r>
       <r>    8.1675    0.0000 </r>
       <r>    8.1688    0.0000 </r>
       <r>    8.1690    0.0000 </r>
       <r>    8.1701    0.0000 </r>
       <r>    8.3433    0.0000 </r>
       <r>    8.3444    0.0000 </r>
       <r>    8.3445    0.0000 </r>
       <r>    8.3455    0.0000 </r>
       <r>    8.6120    0.0000 </r>
       <r>    8.6121    0.0000 </r>
       <r>    8.6378    0.0000 </r>
       <r>    8.6380    0.0000 </r>
       <r>    9.3969    0.0000 </r>
       <r>    9.3969    0.0000 </r>
       <r>    9.3969    0.0000 </r>
       <r>    9.4003    0.0000 </r>
       <r>    9.5485    0.0000 </r>
       <r>    9.5539    0.0000 </r>
      </set>
      <set comment="kpoint 4">
       <r>  -52.2063    1.0000 </r>
       <r>  -52.2063    1.0000 </r>
       <r>  -52.2062    1.0000 </r>
       <r>  -52.2062    1.0000 </r>
       <r>  -52.2046    1.0000 </r>
       <r>  -52.2046    1.0000 </r>
       <r>  -52.2046    1.0000 </r>
       <r>  -52.2046    1.0000 </r>
       <r>  -35.0988    1.0000 </r>
       <r>  -35.0947    1.0000 </r>
       <r>  -35.0931    1.0000 </r>
       <r>  -35.0930    1.0000 </r>
       <r>  -35.0890    1.0000 </r>
       <r>  -35.0889    1.0000 </r>
       <r>  -35.0873    1.0000 </r>
       <r>  -35.0832    1.0000 </r>
       <r>  -28.5292    1.0000 </r>
       <r>  -28.5292    1.0000 </r>
       <r>  -28.5291    1.0000 </r>
       <r>  -28.5291    1.0000 </r>
       <r>  -28.4933    1.0000 </r>
       <r>  -28.4933    1.0000 </r>
       <r>  -28.4932    1.0000 </r>
       <r>  -28.4932    1.0000 </r>
       <r>  -28.4928    1.0000 </r>
       <r>  -28.4928    1.0000 </r>
       <r>  -28.4928    1.0000 </r>
       <r>  -28.4927    1.0000 </r>
       <r>  -28.4905    1.0000 </r>
       <r>  -28.4905    1.0000 </r>
       <r>  -28.4904    1.0000 </r>
       <r>  -28.4904    1.0000 </r>
       <r>  -28.4898    1.0000 </r>
       <r>  -28.4898    1.0000 </r>
       <r>  -28.4897    1.0000 </r>
       <r>  -28.4897    1.0000 </r>
       <r>  -28.4535    1.0000 </r>
       <r>  -28.4535    1.0000 </r>
       <r>  -28.4535    1.0000 </r>
       <r>  -28.4535    1.0000 </r>
       <r>  -16.1966    1.0000 </r>
       <r>  -16.1928    1.0000 </r>
       <r>  -16.1910    1.0000 </r>
       <r>  -16.1872    1.0000 </r>
       <r>  -16.1664    1.0000 </r>
       <r>  -16.1663    1.0000 </r>
       <r>  -16.1628    1.0000 </r>
       <r>  -16.1627    1.0000 </r>
       <r>  -16.1218    1.0000 </r>
       <r>  -16.1217    1.0000 </r>
       <r>  -16.1181    1.0000 </r>
       <r>  -16.1180    1.0000 </r>
       <r>  -16.1097    1.0000 </r>
       <r>  -16.1096    1.0000 </r>
       <r>  -16.1058    1.0000 </r>
       <r>  -16.1058    1.0000 </r>
       <r>  -16.0885    1.0000 </r>
       <r>  -16.0885    1.0000 </r>
       <r>  -16.0847    1.0000 </r>
       <r>  -16.0847    1.0000 </r>
       <r>  -16.0496    1.0000 </r>
       <r>  -16.0454    1.0000 </r>
       <r>  -16.0436    1.0000 </r>
       <r>  -16.0393    1.0000 </r>
       <r>  -12.7361    1.0000 </r>
       <r>  -12.7358    1.0000 </r>
       <r>  -12.7355    1.0000 </r>
       <r>  -12.7351    1.0000 </r>
       <r>  -12.2841    1.0000 </r>
       <r>  -12.2839    1.0000 </r>
       <r>  -12.2821    1.0000 </r>
       <r>  -12.2819    1.0000 </r>
       <r>  -12.0999    1.0000 </r>
       <r>  -12.0993    1.0000 </r>
       <r>  -12.0991    1.0000 </r>
       <r>  -12.0985    1.0000 </r>
       <r>  -12.0046    1.0000 </r>
       <r>  -12.0038    1.0000 </r>
       <r>  -12.0015    1.0000 </r>
       <r>  -12.0007    1.0000 </r>
       <r>  -11.9764    1.0000 </r>
       <r>  -11.9760    1.0000 </r>
       <r>  -11.9737    1.0000 </r>
       <r>  -11.9731    1.0000 </r>
       <r>  -11.7912    1.0000 </r>
       <r>  -11.7912    1.0000 </r>
       <r>  -11.7912    1.0000 </r>
       <r>  -11.7912    1.0000 </r>
       <r>   -0.1404    1.0000 </r>
       <r>   -0.1403    1.0000 </r>
       <r>   -0.1402    1.0000 </r>
       <r>   -0.1401    1.0000 </r>
       <r>    0.1251    1.0000 </r>
       <r>    0.1251    1.0000 </r>
       <r>    0.1258    1.0000 </r>
       <r>    0.1259    1.0000 </r>
       <r>    0.3207    1.0000 </r>
       <r>    0.3211    1.0000 </r>
       <r>    0.3222    1.0000 </r>
       <r>    0.3225    1.0000 </r>
       <r>    0.4769    1.0000 </r>
       <r>    0.4773    1.0000 </r>
       <r>    0.4785    1.0000 </r>
       <r>    0.4789    1.0000 </r>
       <r>    0.5945    1.0000 </r>
       <r>    0.5948    1.0000 </r>
       <r>    0.5968    1.0000 </r>
       <r>    0.5970    1.0000 </r>
       <r>    0.7921    1.0000 </r>
       <r>    0.7941    1.0000 </r>
       <r>    0.7943    1.0000 </r>
       <r>    0.7963    1.0000 </r>
       <r>    0.9653    1.0000 </r>
       <r>    0.9674    1.0000 </r>
       <r>    0.9678    1.0000 </r>
       <r>    0.9699    1.0000 </r>
       <r>    1.1692    1.0000 </r>
       <r>    1.1721    1.0000 </r>
       <r>    1.1725    1.0000 </r>
       <r>    1.1754    1.0000 </r>
       <r>    1.2887    1.0000 </r>
       <r>    1.2890    1.0000 </r>
       <r>    1.2899    1.0000 </r>
       <r>    1.2902    1.0000 </r>
       <r>    1.4017    1.0000 </r>
       <r>    1.4048    1.0000 </r>
       <r>    1.4050    1.0000 </r>
       <r>    1.4083    1.0000 </r>
       <r>    2.1126    1.0000 </r>
       <r>    2.1141    1.0000 </r>
       <r>    2.1161    1.0000 </r>
       <r>    2.1176    1.0000 </r>
       <r>    2.5108    1.0000 </r>
       <r>    2.5115    1.0000 </r>
       <r>    2.5115    1.0000 </r>
       <r>    2.5121    1.0000 </r>
       <r>    2.7169    1.0000 </r>
       <r>    2.7172    1.0000 </r>
       <r>    2.7178    1.0000 </r>
       <r>    2.7180    1.0000 </r>
       <r>    3.1711    1.0000 </r>
       <r>    3.1711    1.0000 </r>
       <r>    3.1715    1.0000 </r>
       <r>    3.1715    1.0000 </r>
       <r>    3.3499    1.0000 </r>
       <r>    3.3501    1.0000 </r>
       <r>    3.3535    1.0000 </r>
       <r>    3.3537    1.0000 </r>
       <r>    3.4038    1.0000 </r>
       <r>    3.4041    1.0000 </r>
       <r>    3.4048    1.0000 </r>
       <r>    3.4051    1.0000 </r>
       <r>    3.5086    1.0000 </r>
       <r>    3.5097    1.0000 </r>
       <r>    3.5127    1.0000 </r>
       <r>    3.5139    1.0000 </r>
       <r>    3.7752    1.0000 </r>
       <r>    3.7758    1.0000 </r>
       <r>    3.7759    1.0000 </r>
       <r>    3.7765    1.0000 </r>
       <r>    7.1633    0.0000 </r>
       <r>    7.1646    0.0000 </r>
       <r>    7.1648    0.0000 </r>
       <r>    7.1660    0.0000 </r>
       <r>    7.3162    0.0000 </r>
       <r>    7.3171    0.0000 </r>
       <r>    7.3174    0.0000 </r>
       <r>    7.3183    0.0000 </r>
       <r>    7.5508    0.0000 </r>
       <r>    7.5518    0.0000 </r>
       <r>    7.5527    0.0000 </r>
       <r>    7.5535    0.0000 </r>
       <r>    7.7399    0.0000 </r>
       <r>    7.7408    0.0000 </r>
       <r>    7.7416    0.0000 </r>
       <r>    7.7424    0.0000 </r>
       <r>    8.2328    0.0000 </r>
       <r>    8.2331    0.0000 </r>
       <r>    8.2332    0.0000 </r>
       <r>    8.2335    0.0000 </r>
       <r>    8.2814    0.0000 </r>
       <r>    8.2815    0.0000 </r>
       <r>    8.2817    0.0000 </r>
       <r>    8.2819    0.0000 </r>
       <r>    9.2646    0.0000 </r>
       <r>    9.2646    0.0000 </r>
       <r>    9.2646    0.0000 </r>
       <r>    9.2647    0.0000 </r>
       <r>   10.0879    0.0000 </r>
       <r>   10.0896    0.0000 </r>
       <r>   10.0953    0.0000 </r>
       <r>   10.1103    0.0000 </r>
      </set>
      <set comment="kpoint 5">
       <r>  -52.2071    1.0000 </r>
       <r>  -52.2071    1.0000 </r>
       <r>  -52.2054    1.0000 </r>
       <r>  -52.2054    1.0000 </r>
       <r>  -52.2054    1.0000 </r>
       <r>  -52.2054    1.0000 </r>
       <r>  -52.2038    1.0000 </r>
       <r>  -52.2038    1.0000 </r>
       <r>  -35.0984    1.0000 </r>
       <r>  -35.0984    1.0000 </r>
       <r>  -35.0927    1.0000 </r>
       <r>  -35.0927    1.0000 </r>
       <r>  -35.0893    1.0000 </r>
       <r>  -35.0893    1.0000 </r>
       <r>  -35.0836    1.0000 </r>
       <r>  -35.0836    1.0000 </r>
       <r>  -28.5306    1.0000 </r>
       <r>  -28.5306    1.0000 </r>
       <r>  -28.5305    1.0000 </r>
       <r>  -28.5305    1.0000 </r>
       <r>  -28.5278    1.0000 </r>
       <r>  -28.5278    1.0000 </r>
       <r>  -28.5278    1.0000 </r>
       <r>  -28.5278    1.0000 </r>
       <r>  -28.4942    1.0000 </r>
       <r>  -28.4942    1.0000 </r>
       <r>  -28.4918    1.0000 </r>
       <r>  -28.4918    1.0000 </r>
       <r>  -28.4918    1.0000 </r>
       <r>  -28.4918    1.0000 </r>
       <r>  -28.4884    1.0000 </r>
       <r>  -28.4884    1.0000 </r>
       <r>  -28.4550    1.0000 </r>
       <r>  -28.4550    1.0000 </r>
       <r>  -28.4550    1.0000 </r>
       <r>  -28.4550    1.0000 </r>
       <r>  -28.4521    1.0000 </r>
       <r>  -28.4520    1.0000 </r>
       <r>  -28.4520    1.0000 </r>
       <r>  -28.4519    1.0000 </r>
       <r>  -16.2294    1.0000 </r>
       <r>  -16.2294    1.0000 </r>
       <r>  -16.2293    1.0000 </r>
       <r>  -16.2293    1.0000 </r>
       <r>  -16.1725    1.0000 </r>
       <r>  -16.1725    1.0000 </r>
       <r>  -16.1546    1.0000 </r>
       <r>  -16.1545    1.0000 </r>
       <r>  -16.1544    1.0000 </r>
       <r>  -16.1544    1.0000 </r>
       <r>  -16.1155    1.0000 </r>
       <r>  -16.1154    1.0000 </r>
       <r>  -16.1114    1.0000 </r>
       <r>  -16.1113    1.0000 </r>
       <r>  -16.0807    1.0000 </r>
       <r>  -16.0806    1.0000 </r>
       <r>  -16.0508    1.0000 </r>
       <r>  -16.0508    1.0000 </r>
       <r>  -16.0502    1.0000 </r>
       <r>  -16.0502    1.0000 </r>
       <r>  -16.0386    1.0000 </r>
       <r>  -16.0386    1.0000 </r>
       <r>  -16.0381    1.0000 </r>
       <r>  -16.0381    1.0000 </r>
       <r>  -12.9687    1.0000 </r>
       <r>  -12.9687    1.0000 </r>
       <r>  -12.5527    1.0000 </r>
       <r>  -12.5527    1.0000 </r>
       <r>  -12.5527    1.0000 </r>
       <r>  -12.5526    1.0000 </r>
       <r>  -12.1972    1.0000 </r>
       <r>  -12.1972    1.0000 </r>
       <r>  -12.1914    1.0000 </r>
       <r>  -12.1914    1.0000 </r>
       <r>  -12.0576    1.0000 </r>
       <r>  -12.0576    1.0000 </r>
       <r>  -12.0158    1.0000 </r>
       <r>  -12.0158    1.0000 </r>
       <r>  -12.0158    1.0000 </r>
       <r>  -12.0158    1.0000 </r>
       <r>  -11.8110    1.0000 </r>
       <r>  -11.8096    1.0000 </r>
       <r>  -11.8095    1.0000 </r>
       <r>  -11.8080    1.0000 </r>
       <r>  -11.7743    1.0000 </r>
       <r>  -11.7743    1.0000 </r>
       <r>  -11.7743    1.0000 </r>
       <r>  -11.7742    1.0000 </r>
       <r>   -0.2906    1.0000 </r>
       <r>   -0.2906    1.0000 </r>
       <r>   -0.2643    1.0000 </r>
       <r>   -0.2643    1.0000 </r>
       <r>   -0.1410    1.0000 </r>
       <r>   -0.1410    1.0000 </r>
       <r>   -0.1410    1.0000 </r>
       <r>   -0.1409    1.0000 </r>
       <r>    0.0159    1.0000 </r>
       <r>    0.0159    1.0000 </r>
       <r>    0.1175    1.0000 </r>
       <r>    0.1183    1.0000 </r>
       <r>    0.1189    1.0000 </r>
       <r>    0.1196    1.0000 </r>
       <r>    0.4583    1.0000 </r>
       <r>    0.4583    1.0000 </r>
       <r>    0.4583    1.0000 </r>
       <r>    0.4583    1.0000 </r>
       <r>    0.5893    1.0000 </r>
       <r>    0.5893    1.0000 </r>
       <r>    0.7961    1.0000 </r>
       <r>    0.7961    1.0000 </r>
       <r>    0.7961    1.0000 </r>
       <r>    0.7961    1.0000 </r>
       <r>    1.0844    1.0000 </r>
       <r>    1.0844    1.0000 </r>
       <r>    1.2634    1.0000 </r>
       <r>    1.2634    1.0000 </r>
       <r>    1.2634    1.0000 </r>
       <r>    1.2634    1.0000 </r>
       <r>    1.4683    1.0000 </r>
       <r>    1.4691    1.0000 </r>
       <r>    1.4695    1.0000 </r>
       <r>    1.4702    1.0000 </r>
       <r>    1.5911    1.0000 </r>
       <r>    1.5911    1.0000 </r>
       <r>    1.5912    1.0000 </r>
       <r>    1.5912    1.0000 </r>
       <r>    2.1596    1.0000 </r>
       <r>    2.1628    1.0000 </r>
       <r>    2.1631    1.0000 </r>
       <r>    2.1663    1.0000 </r>
       <r>    2.4278    1.0000 </r>
       <r>    2.4279    1.0000 </r>
       <r>    2.4475    1.0000 </r>
       <r>    2.4475    1.0000 </r>
       <r>    2.4475    1.0000 </r>
       <r>    2.4475    1.0000 </r>
       <r>    2.6680    1.0000 </r>
       <r>    2.6680    1.0000 </r>
       <r>    2.6680    1.0000 </r>
       <r>    2.6680    1.0000 </r>
       <r>    2.7136    1.0000 </r>
       <r>    2.7137    1.0000 </r>
       <r>    2.9528    1.0000 </r>
       <r>    2.9548    1.0000 </r>
       <r>    2.9549    1.0000 </r>
       <r>    2.9569    1.0000 </r>
       <r>    3.5848    1.0000 </r>
       <r>    3.5848    1.0000 </r>
       <r>    3.5848    1.0000 </r>
       <r>    3.5848    1.0000 </r>
       <r>    3.6220    1.0000 </r>
       <r>    3.6221    1.0000 </r>
       <r>    3.6224    1.0000 </r>
       <r>    3.6226    1.0000 </r>
       <r>    3.6384    1.0000 </r>
       <r>    3.6384    1.0000 </r>
       <r>    3.6385    1.0000 </r>
       <r>    3.6386    1.0000 </r>
       <r>    4.2471    1.0000 </r>
       <r>    4.2472    1.0000 </r>
       <r>    6.2229    0.0000 </r>
       <r>    6.2230    0.0000 </r>
       <r>    7.2092    0.0000 </r>
       <r>    7.2092    0.0000 </r>
       <r>    7.2092    0.0000 </r>
       <r>    7.2092    0.0000 </r>
       <r>    7.2793    0.0000 </r>
       <r>    7.2793    0.0000 </r>
       <r>    7.2795    0.0000 </r>
       <r>    7.2795    0.0000 </r>
       <r>    8.0913    0.0000 </r>
       <r>    8.0915    0.0000 </r>
       <r>    8.0915    0.0000 </r>
       <r>    8.0915    0.0000 </r>
       <r>    8.1677    0.0000 </r>
       <r>    8.1689    0.0000 </r>
       <r>    8.1689    0.0000 </r>
       <r>    8.1701    0.0000 </r>
       <r>    8.3444    0.0000 </r>
       <r>    8.3444    0.0000 </r>
       <r>    8.3444    0.0000 </r>
       <r>    8.3444    0.0000 </r>
       <r>    8.6118    0.0000 </r>
       <r>    8.6120    0.0000 </r>
       <r>    8.6379    0.0000 </r>
       <r>    8.6381    0.0000 </r>
       <r>    9.3969    0.0000 </r>
       <r>    9.3969    0.0000 </r>
       <r>    9.3969    0.0000 </r>
       <r>    9.3970    0.0000 </r>
       <r>    9.5508    0.0000 </r>
       <r>    9.5510    0.0000 </r>
      </set>
      <set comment="kpoint 6">
       <r>  -52.2063    1.0000 </r>
       <r>  -52.2063    1.0000 </r>
       <r>  -52.2062    1.0000 </r>
       <r>  -52.2062    1.0000 </r>
       <r>  -52.2046    1.0000 </r>
       <r>  -52.2046    1.0000 </r>
       <r>  -52.2046    1.0000 </r>
       <r>  -52.2046    1.0000 </r>
       <r>  -35.0967    1.0000 </r>
       <r>  -35.0967    1.0000 </r>
       <r>  -35.0940    1.0000 </r>
       <r>  -35.0940    1.0000 </r>
       <r>  -35.0880    1.0000 </r>
       <r>  -35.0880    1.0000 </r>
       <r>  -35.0853    1.0000 </r>
       <r>  -35.0853    1.0000 </r>
       <r>  -28.5292    1.0000 </r>
       <r>  -28.5292    1.0000 </r>
       <r>  -28.5292    1.0000 </r>
       <r>  -28.5292    1.0000 </r>
       <r>  -28.4932    1.0000 </r>
       <r>  -28.4932    1.0000 </r>
       <r>  -28.4932    1.0000 </r>
       <r>  -28.4932    1.0000 </r>
       <r>  -28.4928    1.0000 </r>
       <r>  -28.4928    1.0000 </r>
       <r>  -28.4928    1.0000 </r>
       <r>  -28.4928    1.0000 </r>
       <r>  -28.4905    1.0000 </r>
       <r>  -28.4905    1.0000 </r>
       <r>  -28.4905    1.0000 </r>
       <r>  -28.4905    1.0000 </r>
       <r>  -28.4898    1.0000 </r>
       <r>  -28.4898    1.0000 </r>
       <r>  -28.4898    1.0000 </r>
       <r>  -28.4898    1.0000 </r>
       <r>  -28.4535    1.0000 </r>
       <r>  -28.4535    1.0000 </r>
       <r>  -28.4535    1.0000 </r>
       <r>  -28.4535    1.0000 </r>
       <r>  -16.1920    1.0000 </r>
       <r>  -16.1920    1.0000 </r>
       <r>  -16.1919    1.0000 </r>
       <r>  -16.1919    1.0000 </r>
       <r>  -16.1646    1.0000 </r>
       <r>  -16.1646    1.0000 </r>
       <r>  -16.1646    1.0000 </r>
       <r>  -16.1646    1.0000 </r>
       <r>  -16.1207    1.0000 </r>
       <r>  -16.1206    1.0000 </r>
       <r>  -16.1205    1.0000 </r>
       <r>  -16.1205    1.0000 </r>
       <r>  -16.1070    1.0000 </r>
       <r>  -16.1070    1.0000 </r>
       <r>  -16.1070    1.0000 </r>
       <r>  -16.1069    1.0000 </r>
       <r>  -16.0867    1.0000 </r>
       <r>  -16.0867    1.0000 </r>
       <r>  -16.0867    1.0000 </r>
       <r>  -16.0866    1.0000 </r>
       <r>  -16.0445    1.0000 </r>
       <r>  -16.0445    1.0000 </r>
       <r>  -16.0443    1.0000 </r>
       <r>  -16.0443    1.0000 </r>
       <r>  -12.7356    1.0000 </r>
       <r>  -12.7356    1.0000 </r>
       <r>  -12.7356    1.0000 </r>
       <r>  -12.7356    1.0000 </r>
       <r>  -12.2830    1.0000 </r>
       <r>  -12.2830    1.0000 </r>
       <r>  -12.2830    1.0000 </r>
       <r>  -12.2830    1.0000 </r>
       <r>  -12.0992    1.0000 </r>
       <r>  -12.0992    1.0000 </r>
       <r>  -12.0992    1.0000 </r>
       <r>  -12.0992    1.0000 </r>
       <r>  -12.0026    1.0000 </r>
       <r>  -12.0026    1.0000 </r>
       <r>  -12.0026    1.0000 </r>
       <r>  -12.0026    1.0000 </r>
       <r>  -11.9749    1.0000 </r>
       <r>  -11.9749    1.0000 </r>
       <r>  -11.9749    1.0000 </r>
       <r>  -11.9749    1.0000 </r>
       <r>  -11.7912    1.0000 </r>
       <r>  -11.7912    1.0000 </r>
       <r>  -11.7912    1.0000 </r>
       <r>  -11.7911    1.0000 </r>
       <r>   -0.1403    1.0000 </r>
       <r>   -0.1403    1.0000 </r>
       <r>   -0.1402    1.0000 </r>
       <r>   -0.1402    1.0000 </r>
       <r>    0.1254    1.0000 </r>
       <r>    0.1255    1.0000 </r>
       <r>    0.1255    1.0000 </r>
       <r>    0.1255    1.0000 </r>
       <r>    0.3216    1.0000 </r>
       <r>    0.3216    1.0000 </r>
       <r>    0.3216    1.0000 </r>
       <r>    0.3216    1.0000 </r>
       <r>    0.4778    1.0000 </r>
       <r>    0.4779    1.0000 </r>
       <r>    0.4779    1.0000 </r>
       <r>    0.4779    1.0000 </r>
       <r>    0.5958    1.0000 </r>
       <r>    0.5958    1.0000 </r>
       <r>    0.5958    1.0000 </r>
       <r>    0.5958    1.0000 </r>
       <r>    0.7942    1.0000 </r>
       <r>    0.7942    1.0000 </r>
       <r>    0.7942    1.0000 </r>
       <r>    0.7943    1.0000 </r>
       <r>    0.9676    1.0000 </r>
       <r>    0.9676    1.0000 </r>
       <r>    0.9676    1.0000 </r>
       <r>    0.9677    1.0000 </r>
       <r>    1.1721    1.0000 </r>
       <r>    1.1722    1.0000 </r>
       <r>    1.1722    1.0000 </r>
       <r>    1.1723    1.0000 </r>
       <r>    1.2894    1.0000 </r>
       <r>    1.2894    1.0000 </r>
       <r>    1.2894    1.0000 </r>
       <r>    1.2895    1.0000 </r>
       <r>    1.4049    1.0000 </r>
       <r>    1.4049    1.0000 </r>
       <r>    1.4049    1.0000 </r>
       <r>    1.4050    1.0000 </r>
       <r>    2.1151    1.0000 </r>
       <r>    2.1151    1.0000 </r>
       <r>    2.1151    1.0000 </r>
       <r>    2.1152    1.0000 </r>
       <r>    2.5115    1.0000 </r>
       <r>    2.5115    1.0000 </r>
       <r>    2.5115    1.0000 </r>
       <r>    2.5115    1.0000 </r>
       <r>    2.7174    1.0000 </r>
       <r>    2.7175    1.0000 </r>
       <r>    2.7175    1.0000 </r>
       <r>    2.7175    1.0000 </r>
       <r>    3.1713    1.0000 </r>
       <r>    3.1713    1.0000 </r>
       <r>    3.1713    1.0000 </r>
       <r>    3.1713    1.0000 </r>
       <r>    3.3518    1.0000 </r>
       <r>    3.3518    1.0000 </r>
       <r>    3.3518    1.0000 </r>
       <r>    3.3518    1.0000 </r>
       <r>    3.4045    1.0000 </r>
       <r>    3.4045    1.0000 </r>
       <r>    3.4045    1.0000 </r>
       <r>    3.4045    1.0000 </r>
       <r>    3.5112    1.0000 </r>
       <r>    3.5112    1.0000 </r>
       <r>    3.5112    1.0000 </r>
       <r>    3.5112    1.0000 </r>
       <r>    3.7759    1.0000 </r>
       <r>    3.7759    1.0000 </r>
       <r>    3.7759    1.0000 </r>
       <r>    3.7759    1.0000 </r>
       <r>    7.1646    0.0000 </r>
       <r>    7.1647    0.0000 </r>
       <r>    7.1647    0.0000 </r>
       <r>    7.1647    0.0000 </r>
       <r>    7.3172    0.0000 </r>
       <r>    7.3172    0.0000 </r>
       <r>    7.3172    0.0000 </r>
       <r>    7.3172    0.0000 </r>
       <r>    7.5522    0.0000 </r>
       <r>    7.5522    0.0000 </r>
       <r>    7.5522    0.0000 </r>
       <r>    7.5522    0.0000 </r>
       <r>    7.7412    0.0000 </r>
       <r>    7.7412    0.0000 </r>
       <r>    7.7412    0.0000 </r>
       <r>    7.7412    0.0000 </r>
       <r>    8.2331    0.0000 </r>
       <r>    8.2332    0.0000 </r>
       <r>    8.2332    0.0000 </r>
       <r>    8.2332    0.0000 </r>
       <r>    8.2816    0.0000 </r>
       <r>    8.2816    0.0000 </r>
       <r>    8.2816    0.0000 </r>
       <r>    8.2816    0.0000 </r>
       <r>    9.2646    0.0000 </r>
       <r>    9.2646    0.0000 </r>
       <r>    9.2646    0.0000 </r>
       <r>    9.2646    0.0000 </r>
       <r>   10.0887    0.0000 </r>
       <r>   10.0887    0.0000 </r>
       <r>   10.0893    0.0000 </r>
       <r>   10.1618    0.0000 </r>
      </set>
      <set comment="kpoint 7">
       <r>  -52.2063    1.0000 </r>
       <r>  -52.2063    1.0000 </r>
       <r>  -52.2062    1.0000 </r>
       <r>  -52.2062    1.0000 </r>
       <r>  -52.2046    1.0000 </r>
       <r>  -52.2046    1.0000 </r>
       <r>  -52.2046    1.0000 </r>
       <r>  -52.2046    1.0000 </r>
       <r>  -35.0974    1.0000 </r>
       <r>  -35.0974    1.0000 </r>
       <r>  -35.0917    1.0000 </r>
       <r>  -35.0917    1.0000 </r>
       <r>  -35.0903    1.0000 </r>
       <r>  -35.0903    1.0000 </r>
       <r>  -35.0846    1.0000 </r>
       <r>  -35.0846    1.0000 </r>
       <r>  -28.5292    1.0000 </r>
       <r>  -28.5292    1.0000 </r>
       <r>  -28.5292    1.0000 </r>
       <r>  -28.5291    1.0000 </r>
       <r>  -28.4933    1.0000 </r>
       <r>  -28.4932    1.0000 </r>
       <r>  -28.4932    1.0000 </r>
       <r>  -28.4932    1.0000 </r>
       <r>  -28.4928    1.0000 </r>
       <r>  -28.4928    1.0000 </r>
       <r>  -28.4928    1.0000 </r>
       <r>  -28.4928    1.0000 </r>
       <r>  -28.4905    1.0000 </r>
       <r>  -28.4905    1.0000 </r>
       <r>  -28.4905    1.0000 </r>
       <r>  -28.4904    1.0000 </r>
       <r>  -28.4898    1.0000 </r>
       <r>  -28.4898    1.0000 </r>
       <r>  -28.4898    1.0000 </r>
       <r>  -28.4898    1.0000 </r>
       <r>  -28.4535    1.0000 </r>
       <r>  -28.4535    1.0000 </r>
       <r>  -28.4535    1.0000 </r>
       <r>  -28.4535    1.0000 </r>
       <r>  -16.1945    1.0000 </r>
       <r>  -16.1945    1.0000 </r>
       <r>  -16.1893    1.0000 </r>
       <r>  -16.1893    1.0000 </r>
       <r>  -16.1648    1.0000 </r>
       <r>  -16.1647    1.0000 </r>
       <r>  -16.1645    1.0000 </r>
       <r>  -16.1645    1.0000 </r>
       <r>  -16.1204    1.0000 </r>
       <r>  -16.1204    1.0000 </r>
       <r>  -16.1201    1.0000 </r>
       <r>  -16.1200    1.0000 </r>
       <r>  -16.1076    1.0000 </r>
       <r>  -16.1076    1.0000 </r>
       <r>  -16.1073    1.0000 </r>
       <r>  -16.1073    1.0000 </r>
       <r>  -16.0867    1.0000 </r>
       <r>  -16.0867    1.0000 </r>
       <r>  -16.0864    1.0000 </r>
       <r>  -16.0863    1.0000 </r>
       <r>  -16.0471    1.0000 </r>
       <r>  -16.0471    1.0000 </r>
       <r>  -16.0418    1.0000 </r>
       <r>  -16.0418    1.0000 </r>
       <r>  -12.7357    1.0000 </r>
       <r>  -12.7357    1.0000 </r>
       <r>  -12.7355    1.0000 </r>
       <r>  -12.7355    1.0000 </r>
       <r>  -12.2851    1.0000 </r>
       <r>  -12.2833    1.0000 </r>
       <r>  -12.2828    1.0000 </r>
       <r>  -12.2809    1.0000 </r>
       <r>  -12.1012    1.0000 </r>
       <r>  -12.0993    1.0000 </r>
       <r>  -12.0991    1.0000 </r>
       <r>  -12.0972    1.0000 </r>
       <r>  -12.0047    1.0000 </r>
       <r>  -12.0028    1.0000 </r>
       <r>  -12.0024    1.0000 </r>
       <r>  -12.0005    1.0000 </r>
       <r>  -11.9770    1.0000 </r>
       <r>  -11.9751    1.0000 </r>
       <r>  -11.9747    1.0000 </r>
       <r>  -11.9728    1.0000 </r>
       <r>  -11.7913    1.0000 </r>
       <r>  -11.7912    1.0000 </r>
       <r>  -11.7912    1.0000 </r>
       <r>  -11.7911    1.0000 </r>
       <r>   -0.1405    1.0000 </r>
       <r>   -0.1403    1.0000 </r>
       <r>   -0.1402    1.0000 </r>
       <r>   -0.1399    1.0000 </r>
       <r>    0.1241    1.0000 </r>
       <r>    0.1255    1.0000 </r>
       <r>    0.1255    1.0000 </r>
       <r>    0.1270    1.0000 </r>
       <r>    0.3212    1.0000 </r>
       <r>    0.3213    1.0000 </r>
       <r>    0.3219    1.0000 </r>
       <r>    0.3221    1.0000 </r>
       <r>    0.4771    1.0000 </r>
       <r>    0.4778    1.0000 </r>
       <r>    0.4780    1.0000 </r>
       <r>    0.4786    1.0000 </r>
       <r>    0.5947    1.0000 </r>
       <r>    0.5949    1.0000 </r>
       <r>    0.5966    1.0000 </r>
       <r>    0.5968    1.0000 </r>
       <r>    0.7936    1.0000 </r>
       <r>    0.7942    1.0000 </r>
       <r>    0.7943    1.0000 </r>
       <r>    0.7949    1.0000 </r>
       <r>    0.9662    1.0000 </r>
       <r>    0.9676    1.0000 </r>
       <r>    0.9677    1.0000 </r>
       <r>    0.9691    1.0000 </r>
       <r>    1.1711    1.0000 </r>
       <r>    1.1720    1.0000 </r>
       <r>    1.1725    1.0000 </r>
       <r>    1.1734    1.0000 </r>
       <r>    1.2877    1.0000 </r>
       <r>    1.2893    1.0000 </r>
       <r>    1.2896    1.0000 </r>
       <r>    1.2911    1.0000 </r>
       <r>    1.4040    1.0000 </r>
       <r>    1.4044    1.0000 </r>
       <r>    1.4054    1.0000 </r>
       <r>    1.4058    1.0000 </r>
       <r>    2.1131    1.0000 </r>
       <r>    2.1150    1.0000 </r>
       <r>    2.1153    1.0000 </r>
       <r>    2.1171    1.0000 </r>
       <r>    2.5099    1.0000 </r>
       <r>    2.5113    1.0000 </r>
       <r>    2.5116    1.0000 </r>
       <r>    2.5130    1.0000 </r>
       <r>    2.7155    1.0000 </r>
       <r>    2.7174    1.0000 </r>
       <r>    2.7175    1.0000 </r>
       <r>    2.7194    1.0000 </r>
       <r>    3.1651    1.0000 </r>
[...]
       <r>    3.3038    1.0000 </r>
       <r>    3.3047    1.0000 </r>
       <r>    3.6758    1.0000 </r>
       <r>    3.6776    1.0000 </r>
       <r>    3.6778    1.0000 </r>
       <r>    3.6780    1.0000 </r>
       <r>    3.6792    1.0000 </r>
       <r>    3.6794    1.0000 </r>
       <r>    3.6795    1.0000 </r>
       <r>    3.6814    1.0000 </r>
       <r>    7.5935    0.0000 </r>
       <r>    7.5935    0.0000 </r>
       <r>    7.5935    0.0000 </r>
       <r>    7.5943    0.0000 </r>
       <r>    7.5943    0.0000 </r>
       <r>    7.5950    0.0000 </r>
       <r>    7.5950    0.0000 </r>
       <r>    7.5951    0.0000 </r>
       <r>    7.6731    0.0000 </r>
       <r>    7.6732    0.0000 </r>
       <r>    7.6747    0.0000 </r>
       <r>    7.6751    0.0000 </r>
       <r>    7.6752    0.0000 </r>
       <r>    7.6752    0.0000 </r>
       <r>    7.6752    0.0000 </r>
       <r>    7.6753    0.0000 </r>
       <r>    7.6753    0.0000 </r>
       <r>    7.6754    0.0000 </r>
       <r>    7.6754    0.0000 </r>
       <r>    7.6754    0.0000 </r>
       <r>    7.6755    0.0000 </r>
       <r>    7.6759    0.0000 </r>
       <r>    7.6774    0.0000 </r>
       <r>    7.6774    0.0000 </r>
       <r>   10.3627    0.0000 </r>
       <r>   10.3645    0.0000 </r>
       <r>   10.3653    0.0000 </r>
       <r>   10.3673    0.0000 </r>
       <r>   10.3701    0.0000 </r>
       <r>   10.3757    0.0000 </r>
       <r>   10.3822    0.0000 </r>
       <r>   10.3886    0.0000 </r>
      </set>
     </set>
    </set>
   </array>
  </eigenvalues>
  <separator name="orbital magnetization" >
   <v name="MAGDIPOLOUT">      0.00000000      0.00000000      0.00000000</v>
  </separator>
  <dos>
   <i name="efermi">      4.39500333 </i>
   <total>
    <array>
     <dimension dim="1">gridpoints</dimension>
     <dimension dim="2">spin</dimension>
     <field>energy</field>
     <field>total</field>
     <field>integrated</field>
     <set>
      <set comment="spin 1">
       <r>   -55.3377     0.0000     0.0000 </r>
       <r>   -55.1082     0.0000     0.0000 </r>
       <r>   -54.8787     0.0000     0.0000 </r>
       <r>   -54.6492     0.0000     0.0000 </r>
       <r>   -54.4197     0.0000     0.0000 </r>
       <r>   -54.1901     0.0000     0.0000 </r>
       <r>   -53.9606     0.0000     0.0000 </r>
       <r>   -53.7311     0.0000     0.0000 </r>
       <r>   -53.5016     0.0000     0.0000 </r>
       <r>   -53.2721     0.0000     0.0000 </r>
       <r>   -53.0425     0.0000     0.0000 </r>
       <r>   -52.8130     0.0000     0.0000 </r>
       <r>   -52.5835     0.0000     0.0000 </r>
       <r>   -52.3540     0.0000     0.0000 </r>
       <r>   -52.1245     7.6246    16.0000 </r>
       <r>   -51.8949     0.0000    16.0000 </r>
       <r>   -51.6654     0.0000    16.0000 </r>
       <r>   -51.4359     0.0000    16.0000 </r>
       <r>   -51.2064     0.0000    16.0000 </r>
       <r>   -50.9769     0.0000    16.0000 </r>
       <r>   -50.7473     0.0000    16.0000 </r>
       <r>   -50.5178     0.0000    16.0000 </r>
       <r>   -50.2883     0.0000    16.0000 </r>
       <r>   -50.0588     0.0000    16.0000 </r>
       <r>   -49.8292     0.0000    16.0000 </r>
       <r>   -49.5997     0.0000    16.0000 </r>
       <r>   -49.3702     0.0000    16.0000 </r>
       <r>   -49.1407     0.0000    16.0000 </r>
       <r>   -48.9112     0.0000    16.0000 </r>
       <r>   -48.6816     0.0000    16.0000 </r>
       <r>   -48.4521     0.0000    16.0000 </r>
       <r>   -48.2226     0.0000    16.0000 </r>
       <r>   -47.9931     0.0000    16.0000 </r>
       <r>   -47.7636     0.0000    16.0000 </r>
       <r>   -47.5340     0.0000    16.0000 </r>
       <r>   -47.3045     0.0000    16.0000 </r>
       <r>   -47.0750     0.0000    16.0000 </r>
       <r>   -46.8455     0.0000    16.0000 </r>
       <r>   -46.6160     0.0000    16.0000 </r>
       <r>   -46.3864     0.0000    16.0000 </r>
       <r>   -46.1569     0.0000    16.0000 </r>
       <r>   -45.9274     0.0000    16.0000 </r>
       <r>   -45.6979     0.0000    16.0000 </r>
       <r>   -45.4684     0.0000    16.0000 </r>
       <r>   -45.2388     0.0000    16.0000 </r>
       <r>   -45.0093     0.0000    16.0000 </r>
       <r>   -44.7798     0.0000    16.0000 </r>
       <r>   -44.5503     0.0000    16.0000 </r>
       <r>   -44.3208     0.0000    16.0000 </r>
       <r>   -44.0912     0.0000    16.0000 </r>
       <r>   -43.8617     0.0000    16.0000 </r>
       <r>   -43.6322     0.0000    16.0000 </r>
       <r>   -43.4027     0.0000    16.0000 </r>
       <r>   -43.1731     0.0000    16.0000 </r>
       <r>   -42.9436     0.0000    16.0000 </r>
       <r>   -42.7141     0.0000    16.0000 </r>
       <r>   -42.4846     0.0000    16.0000 </r>
       <r>   -42.2551     0.0000    16.0000 </r>
       <r>   -42.0255     0.0000    16.0000 </r>
       <r>   -41.7960     0.0000    16.0000 </r>
       <r>   -41.5665     0.0000    16.0000 </r>
       <r>   -41.3370     0.0000    16.0000 </r>
       <r>   -41.1075     0.0000    16.0000 </r>
       <r>   -40.8779     0.0000    16.0000 </r>
       <r>   -40.6484     0.0000    16.0000 </r>
       <r>   -40.4189     0.0000    16.0000 </r>
       <r>   -40.1894     0.0000    16.0000 </r>
       <r>   -39.9599     0.0000    16.0000 </r>
       <r>   -39.7303     0.0000    16.0000 </r>
       <r>   -39.5008     0.0000    16.0000 </r>
       <r>   -39.2713     0.0000    16.0000 </r>
       <r>   -39.0418     0.0000    16.0000 </r>
       <r>   -38.8123     0.0000    16.0000 </r>
       <r>   -38.5827     0.0000    16.0000 </r>
       <r>   -38.3532     0.0000    16.0000 </r>
       <r>   -38.1237     0.0000    16.0000 </r>
       <r>   -37.8942     0.0000    16.0000 </r>
       <r>   -37.6647     0.0000    16.0000 </r>
       <r>   -37.4351     0.0000    16.0000 </r>
       <r>   -37.2056     0.0000    16.0000 </r>
       <r>   -36.9761     0.0000    16.0000 </r>
       <r>   -36.7466     0.0000    16.0000 </r>
       <r>   -36.5171     0.0000    16.0000 </r>
       <r>   -36.2875     0.0000    16.0000 </r>
       <r>   -36.0580     0.0000    16.0000 </r>
       <r>   -35.8285     0.0000    16.0000 </r>
       <r>   -35.5990     0.0000    16.0000 </r>
       <r>   -35.3694     0.0000    16.0000 </r>
       <r>   -35.1399     0.0000    16.0000 </r>
       <r>   -34.9104     0.0000    32.0000 </r>
       <r>   -34.6809     0.0000    32.0000 </r>
       <r>   -34.4514     0.0000    32.0000 </r>
       <r>   -34.2218     0.0000    32.0000 </r>
       <r>   -33.9923     0.0000    32.0000 </r>
       <r>   -33.7628     0.0000    32.0000 </r>
       <r>   -33.5333     0.0000    32.0000 </r>
       <r>   -33.3038     0.0000    32.0000 </r>
       <r>   -33.0742     0.0000    32.0000 </r>
       <r>   -32.8447     0.0000    32.0000 </r>
       <r>   -32.6152     0.0000    32.0000 </r>
       <r>   -32.3857     0.0000    32.0000 </r>
       <r>   -32.1562     0.0000    32.0000 </r>
       <r>   -31.9266     0.0000    32.0000 </r>
       <r>   -31.6971     0.0000    32.0000 </r>
       <r>   -31.4676     0.0000    32.0000 </r>
       <r>   -31.2381     0.0000    32.0000 </r>
       <r>   -31.0086     0.0000    32.0000 </r>
       <r>   -30.7790     0.0000    32.0000 </r>
       <r>   -30.5495     0.0000    32.0000 </r>
       <r>   -30.3200     0.0000    32.0000 </r>
       <r>   -30.0905     0.0000    32.0000 </r>
       <r>   -29.8610     0.0000    32.0000 </r>
       <r>   -29.6314     0.0000    32.0000 </r>
       <r>   -29.4019     0.0000    32.0000 </r>
       <r>   -29.1724     0.0000    32.0000 </r>
       <r>   -28.9429     0.0000    32.0000 </r>
       <r>   -28.7133     0.0000    32.0000 </r>
       <r>   -28.4838   142.0097    64.5942 </r>
       <r>   -28.2543     0.0000    80.0000 </r>
       <r>   -28.0248     0.0000    80.0000 </r>
       <r>   -27.7953     0.0000    80.0000 </r>
       <r>   -27.5657     0.0000    80.0000 </r>
       <r>   -27.3362     0.0000    80.0000 </r>
       <r>   -27.1067     0.0000    80.0000 </r>
       <r>   -26.8772     0.0000    80.0000 </r>
       <r>   -26.6477     0.0000    80.0000 </r>
       <r>   -26.4181     0.0000    80.0000 </r>
       <r>   -26.1886     0.0000    80.0000 </r>
       <r>   -25.9591     0.0000    80.0000 </r>
       <r>   -25.7296     0.0000    80.0000 </r>
       <r>   -25.5001     0.0000    80.0000 </r>
       <r>   -25.2705     0.0000    80.0000 </r>
       <r>   -25.0410     0.0000    80.0000 </r>
       <r>   -24.8115     0.0000    80.0000 </r>
       <r>   -24.5820     0.0000    80.0000 </r>
       <r>   -24.3525     0.0000    80.0000 </r>
       <r>   -24.1229     0.0000    80.0000 </r>
       <r>   -23.8934     0.0000    80.0000 </r>
       <r>   -23.6639     0.0000    80.0000 </r>
       <r>   -23.4344     0.0000    80.0000 </r>
       <r>   -23.2049     0.0000    80.0000 </r>
       <r>   -22.9753     0.0000    80.0000 </r>
       <r>   -22.7458     0.0000    80.0000 </r>
       <r>   -22.5163     0.0000    80.0000 </r>
       <r>   -22.2868     0.0000    80.0000 </r>
       <r>   -22.0572     0.0000    80.0000 </r>
       <r>   -21.8277     0.0000    80.0000 </r>
       <r>   -21.5982     0.0000    80.0000 </r>
       <r>   -21.3687     0.0000    80.0000 </r>
       <r>   -21.1392     0.0000    80.0000 </r>
       <r>   -20.9096     0.0000    80.0000 </r>
       <r>   -20.6801     0.0000    80.0000 </r>
       <r>   -20.4506     0.0000    80.0000 </r>
       <r>   -20.2211     0.0000    80.0000 </r>
       <r>   -19.9916     0.0000    80.0000 </r>
       <r>   -19.7620     0.0000    80.0000 </r>
       <r>   -19.5325     0.0000    80.0000 </r>
       <r>   -19.3030     0.0000    80.0000 </r>
       <r>   -19.0735     0.0000    80.0000 </r>
       <r>   -18.8440     0.0000    80.0000 </r>
       <r>   -18.6144     0.0000    80.0000 </r>
       <r>   -18.3849     0.0000    80.0000 </r>
       <r>   -18.1554     0.0000    80.0000 </r>
       <r>   -17.9259     0.0000    80.0000 </r>
       <r>   -17.6964     0.0000    80.0000 </r>
       <r>   -17.4668     0.0000    80.0000 </r>
       <r>   -17.2373     0.0000    80.0000 </r>
       <r>   -17.0078     0.0000    80.0000 </r>
       <r>   -16.7783     0.0000    80.0000 </r>
       <r>   -16.5488     0.0000    80.0000 </r>
       <r>   -16.3192     0.0000    80.0000 </r>
       <r>   -16.0897    99.1219   112.5005 </r>
       <r>   -15.8602     0.0000   128.0000 </r>
       <r>   -15.6307     0.0000   128.0000 </r>
       <r>   -15.4012     0.0000   128.0000 </r>
       <r>   -15.1716     0.0000   128.0000 </r>
       <r>   -14.9421     0.0000   128.0000 </r>
       <r>   -14.7126     0.0000   128.0000 </r>
       <r>   -14.4831     0.0000   128.0000 </r>
       <r>   -14.2535     0.0000   128.0000 </r>
       <r>   -14.0240     0.0000   128.0000 </r>
       <r>   -13.7945     0.0000   128.0000 </r>
       <r>   -13.5650     0.0000   128.0000 </r>
       <r>   -13.3355     0.0000   128.0000 </r>
       <r>   -13.1059     0.0000   128.2500 </r>
       <r>   -12.8764     0.0000   129.7500 </r>
       <r>   -12.6469     3.1532   133.4737 </r>
       <r>   -12.4174     8.7138   139.2500 </r>
       <r>   -12.1879    12.6446   145.1522 </r>
       <r>   -11.9583    56.5017   163.9683 </r>
       <r>   -11.7288    31.2667   175.4264 </r>
       <r>   -11.4993     0.0000   176.0000 </r>
       <r>   -11.2698     0.0000   176.0000 </r>
       <r>   -11.0403     0.0000   176.0000 </r>
       <r>   -10.8107     0.0000   176.0000 </r>
       <r>   -10.5812     0.0000   176.0000 </r>
       <r>   -10.3517     0.0000   176.0000 </r>
       <r>   -10.1222     0.0000   176.0000 </r>
       <r>    -9.8927     0.0000   176.0000 </r>
       <r>    -9.6631     0.0000   176.0000 </r>
       <r>    -9.4336     0.0000   176.0000 </r>
       <r>    -9.2041     0.0000   176.0000 </r>
       <r>    -8.9746     0.0000   176.0000 </r>
       <r>    -8.7451     0.0000   176.0000 </r>
       <r>    -8.5155     0.0000   176.0000 </r>
       <r>    -8.2860     0.0000   176.0000 </r>
       <r>    -8.0565     0.0000   176.0000 </r>
       <r>    -7.8270     0.0000   176.0000 </r>
       <r>    -7.5974     0.0000   176.0000 </r>
       <r>    -7.3679     0.0000   176.0000 </r>
       <r>    -7.1384     0.0000   176.0000 </r>
       <r>    -6.9089     0.0000   176.0000 </r>
       <r>    -6.6794     0.0000   176.0000 </r>
       <r>    -6.4498     0.0000   176.0000 </r>
       <r>    -6.2203     0.0000   176.0000 </r>
       <r>    -5.9908     0.0000   176.0000 </r>
       <r>    -5.7613     0.0000   176.0000 </r>
       <r>    -5.5318     0.0000   176.0000 </r>
       <r>    -5.3022     0.0000   176.0000 </r>
       <r>    -5.0727     0.0000   176.0000 </r>
       <r>    -4.8432     0.0000   176.0000 </r>
       <r>    -4.6137     0.0000   176.0000 </r>
       <r>    -4.3842     0.0000   176.0000 </r>
       <r>    -4.1546     0.0000   176.0000 </r>
       <r>    -3.9251     0.0000   176.0000 </r>
       <r>    -3.6956     0.0000   176.0000 </r>
       <r>    -3.4661     0.0000   176.0000 </r>
       <r>    -3.2366     0.0000   176.0000 </r>
       <r>    -3.0070     0.0000   176.0000 </r>
       <r>    -2.7775     0.0000   176.0000 </r>
       <r>    -2.5480     0.0000   176.0000 </r>
       <r>    -2.3185     0.0000   176.0000 </r>
       <r>    -2.0890     0.0000   176.0000 </r>
       <r>    -1.8594     0.0000   176.0000 </r>
       <r>    -1.6299     0.0000   176.0000 </r>
       <r>    -1.4004     0.0000   176.0000 </r>
       <r>    -1.1709     0.0000   176.0000 </r>
       <r>    -0.9414     0.0000   176.0000 </r>
       <r>    -0.7118     0.0000   176.0000 </r>
       <r>    -0.4823     3.2677   176.7500 </r>
       <r>    -0.2528    16.0030   180.6730 </r>
       <r>    -0.0233     3.2299   188.2413 </r>
       <r>     0.2063     9.8030   199.0000 </r>
       <r>     0.4358     0.0098   202.0022 </r>
       <r>     0.6653    19.6061   212.5000 </r>
       <r>     0.8948     0.0000   222.5000 </r>
       <r>     1.1243     6.5354   227.0000 </r>
       <r>     1.3539    13.0707   240.7500 </r>
       <r>     1.5834     4.8994   252.8745 </r>
       <r>     1.8129     6.5354   257.0000 </r>
       <r>     2.0424     0.0000   257.0000 </r>
       <r>     2.2719     0.0000   263.0000 </r>
       <r>     2.5015    20.6421   269.9878 </r>
       <r>     2.7310    32.2529   280.9027 </r>
       <r>     2.9605    10.1764   283.3357 </r>
       <r>     3.1900    16.2513   287.7300 </r>
       <r>     3.4195    25.9146   297.6979 </r>
       <r>     3.6491    38.3305   311.0476 </r>
       <r>     3.8786     3.2677   317.0000 </r>
       <r>     4.1081     0.0000   317.0000 </r>
       <r>     4.3376     3.2677   320.0000 </r>
       <r>     4.5671     0.0000   320.0000 </r>
       <r>     4.7967     0.0000   320.0000 </r>
       <r>     5.0262     0.0000   320.0000 </r>
       <r>     5.2557     0.0000   320.0000 </r>
       <r>     5.4852     0.0000   320.0000 </r>
       <r>     5.7147     0.0000   320.0000 </r>
       <r>     5.9443     0.0000   320.0000 </r>
       <r>     6.1738     3.2677   320.7500 </r>
       <r>     6.4033     0.0000   323.0000 </r>
       <r>     6.6328     0.0000   323.0000 </r>
       <r>     6.8624     0.0000   323.0000 </r>
       <r>     7.0919     0.0000   323.0000 </r>
       <r>     7.3214    22.4965   334.1634 </r>
       <r>     7.5509     5.5800   336.2807 </r>
       <r>     7.7804    13.0707   347.0000 </r>
       <r>     8.0100     0.0000   347.0000 </r>
       <r>     8.2395    23.7093   358.4418 </r>
       <r>     8.4690     0.0015   365.0004 </r>
       <r>     8.6985     9.8030   370.0000 </r>
       <r>     8.9280     0.0000   370.7500 </r>
       <r>     9.1576     0.0000   371.2500 </r>
       <r>     9.3871     0.9264   374.4626 </r>
       <r>     9.6166     6.5354   379.0000 </r>
       <r>     9.8461     0.0000   379.0000 </r>
       <r>    10.0756     0.2400   379.0551 </r>
       <r>    10.3052     0.0000   382.0000 </r>
       <r>    10.5347     0.0000   384.0000 </r>
       <r>    10.7642     0.0000   384.0000 </r>
       <r>    10.9937     0.0000   384.0000 </r>
       <r>    11.2232     0.0000   384.0000 </r>
       <r>    11.4528     0.0000   384.0000 </r>
       <r>    11.6823     0.0000   384.0000 </r>
       <r>    11.9118     0.0000   384.0000 </r>
       <r>    12.1413     0.0000   384.0000 </r>
       <r>    12.3708     0.0000   384.0000 </r>
       <r>    12.6004     0.0000   384.0000 </r>
       <r>    12.8299     0.0000   384.0000 </r>
       <r>    13.0594     0.0000   384.0000 </r>
       <r>    13.2889     0.0000   384.0000 </r>
       <r>    13.5184     0.0000   384.0000 </r>
      </set>
     </set>
    </array>
   </total>
  </dos>
 </calculation>
 <structure name="finalpos" >
  <crystal>
   <varray name="basis" >
    <v>       7.77065138       0.00000000       0.00000000 </v>
    <v>       0.00000000       7.77065138       0.00000000 </v>
    <v>       0.00000000       0.00000000       7.77065138 </v>
   </varray>
   <i name="volume">    469.21541999 </i>
   <varray name="rec_basis" >
    <v>       0.12868934       0.00000000       0.00000000 </v>
    <v>       0.00000000       0.12868934       0.00000000 </v>
    <v>       0.00000000       0.00000000       0.12868934 </v>
   </varray>
  </crystal>
  <varray name="positions" >
   <v>       0.00000000       0.00000000       0.00000000 </v>
   <v>       0.50000000       0.00000000       0.00000000 </v>
   <v>       0.00000000       0.50000000       0.00000000 </v>
   <v>       0.50000000       0.50000000       0.00000000 </v>
   <v>       0.00000000       0.00000000       0.50000000 </v>
   <v>       0.50000000       0.00000000       0.50000000 </v>
   <v>       0.00000000       0.50000000       0.50000000 </v>
   <v>       0.50000000       0.50000000       0.50000000 </v>
   <v>       0.25000000       0.25000000       0.25000000 </v>
   <v>       0.75000000       0.25000000       0.25000000 </v>
   <v>       0.25000000       0.75000000       0.25000000 </v>
   <v>       0.75000000       0.75000000       0.25000000 </v>
   <v>       0.25000000       0.25000000       0.75000000 </v>
   <v>       0.75000000       0.25000000       0.75000000 </v>
   <v>       0.25000000       0.75000000       0.75000000 </v>
   <v>       0.75000000       0.75000000       0.75000000 </v>
   <v>       0.00000000       0.25128689       0.25000000 </v>
   <v>       0.50000000       0.25000000       0.25000000 </v>
   <v>       0.00000000       0.75000000       0.25000000 </v>
   <v>       0.50000000       0.75000000       0.25000000 </v>
   <v>       0.00000000       0.25000000       0.75000000 </v>
   <v>       0.50000000       0.25000000       0.75000000 </v>
   <v>       0.00000000       0.75000000       0.75000000 </v>
   <v>       0.50000000       0.75000000       0.75000000 </v>
   <v>       0.25000000       0.00000000       0.25000000 </v>
   <v>       0.75000000       0.00000000       0.25000000 </v>
   <v>       0.25000000       0.50000000       0.25000000 </v>
   <v>       0.75000000       0.50000000       0.25000000 </v>
   <v>       0.25000000       0.00000000       0.75000000 </v>
   <v>       0.75000000       0.00000000       0.75000000 </v>
   <v>       0.25000000       0.50000000       0.75000000 </v>
   <v>       0.75000000       0.50000000       0.75000000 </v>
   <v>       0.25000000       0.25000000       0.00000000 </v>
   <v>       0.75000000       0.25000000       0.00000000 </v>
   <v>       0.25000000       0.75000000       0.00000000 </v>
   <v>       0.75000000       0.75000000       0.00000000 </v>
   <v>       0.25000000       0.25000000       0.50000000 </v>
   <v>       0.75000000       0.25000000       0.50000000 </v>
   <v>       0.25000000       0.75000000       0.50000000 </v>
   <v>       0.75000000       0.75000000       0.50000000 </v>
  </varray>
 </structure>
</modeling>
