14.400
2.43533967 0 0 0 2.43533967 0 0 0 2.43533967
1.08703 0 0 0 1.08703 0 0 0 1.08703
-1.08672 0 0 0 -1.08672 0 0 0 -1.08672
