64
2

1
  0.0100000000000000  -0.0000000000000000   0.0000000000000000
  -0.0209792188    0.0000001562   -0.0000001563
   0.0030307813    0.0000001562   -0.0000001563
   0.0000007812    0.0000001562   -0.0000001563
   0.0001007812    0.0000001562   -0.0000001563
   0.0000007812    0.0000001562   -0.0000001563
   0.0001007812    0.0000001562   -0.0000001563
  -0.0001392188    0.0000001562   -0.0000001563
   0.0001407812    0.0000001562   -0.0000001563
  -0.0005392188    0.0000001562   -0.0000001563
   0.0003707812    0.0000001562   -0.0000001563
  -0.0005392188    0.0000001562   -0.0000001563
   0.0003707812    0.0000001562   -0.0000001563
  -0.0005392188    0.0000001562   -0.0000001563
   0.0003707812    0.0000001562   -0.0000001563
  -0.0005392188    0.0000001562   -0.0000001563
   0.0003707812    0.0000001562   -0.0000001563
   0.0004907812    0.0000001562    0.0019398438
   0.0004907812    0.0000001562   -0.0019301563
  -0.0000092188    0.0000001562   -0.0000201563
  -0.0000092188    0.0000001562    0.0000298438
   0.0004907812    0.0000001562   -0.0019401563
   0.0004907812    0.0000001562    0.0019298438
  -0.0000092188    0.0000001562    0.0000198438
  -0.0000092188    0.0000001562   -0.0000301563
   0.0004907812    0.0019401563   -0.0000001563
   0.0004907812   -0.0019298438   -0.0000001563
   0.0004907812   -0.0019398438   -0.0000001563
   0.0005007812    0.0019301563   -0.0000001563
   0.0000007812   -0.0000198438   -0.0000001563
  -0.0000092188    0.0000301563   -0.0000001563
  -0.0000092188    0.0000201563   -0.0000001563
   0.0000007812   -0.0000298438   -0.0000001563
  -0.0000692188   -0.0004298437   -0.0004301562
  -0.0000692188    0.0004201563    0.0004198438
  -0.0000692188    0.0004301562   -0.0004301562
  -0.0000692188   -0.0004198438    0.0004198438
  -0.0000692188   -0.0004298437    0.0004298437
  -0.0000692188    0.0004201563   -0.0004201563
  -0.0000692188    0.0004301562    0.0004298437
  -0.0000692188   -0.0004298437   -0.0004201563
   0.0061107812    0.0000001562   -0.0000001563
   0.0056407812    0.0000001562   -0.0000001563
   0.0000607812    0.0000001562   -0.0000001563
   0.0000607812    0.0000001562   -0.0000001563
   0.0000607812    0.0000001562   -0.0000001563
   0.0000607812    0.0000001562   -0.0000001563
   0.0000007812    0.0000001562   -0.0000001563
   0.0000007812    0.0000001562   -0.0000001563
   0.0017207812   -0.0000198438   -0.0000001563
  -0.0009292188    0.0000001562   -0.0000001563
   0.0017207812    0.0000201563   -0.0000001563
  -0.0009392188    0.0000001562   -0.0000001563
   0.0001907812    0.0000001562   -0.0000001563
  -0.0002092188    0.0000001562   -0.0000001563
   0.0001907812    0.0000001562   -0.0000001563
  -0.0002092188    0.0000001562   -0.0000001563
   0.0017207812    0.0000001562   -0.0000201563
  -0.0009292188    0.0000001562   -0.0000001563
   0.0001907812    0.0000001562   -0.0000001563
  -0.0002092188    0.0000001562   -0.0000001563
   0.0017207812    0.0000001562    0.0000198438
  -0.0009292188    0.0000001562   -0.0000001563
   0.0002007812    0.0000001562   -0.0000001563
  -0.0002092188    0.0000001562    0.0000098438

33
  0.0100000000000000  -0.0000000000000000   0.0000000000000000
  -0.0000604687   -0.0004000000   -0.0004006250
  -0.0000704687    0.0004100000    0.0004093750
  -0.0000704687    0.0004000000   -0.0003906250
  -0.0000604687   -0.0004100000    0.0004093750
  -0.0000704687   -0.0004000000    0.0003993750
  -0.0000704687    0.0004100000   -0.0004006250
  -0.0000804688    0.0004000000    0.0003893750
  -0.0000604687   -0.0004100000   -0.0004106250
   0.0056295312    0.0000100000   -0.0000006250
   0.0061195312    0.0000000000   -0.0000006250
   0.0000595313   -0.0000100000   -0.0000006250
   0.0000595313   -0.0000000000   -0.0000006250
   0.0000595313    0.0000000000   -0.0000006250
   0.0000595313   -0.0000000000   -0.0000006250
  -0.0000004687   -0.0000000000   -0.0000006250
  -0.0000004687    0.0000000000   -0.0000006250
   0.0016395312    0.0000100000   -0.0000006250
  -0.0008504687    0.0000000000   -0.0000006250
   0.0016295312   -0.0000100000   -0.0000006250
  -0.0008504687   -0.0000000000   -0.0000006250
   0.0001495313    0.0000000000   -0.0000006250
  -0.0001704687    0.0000100000   -0.0000006250
   0.0001495313   -0.0000000000   -0.0000006250
  -0.0001704687   -0.0000100000   -0.0000006250
   0.0016395312   -0.0000000000    0.0000093750
  -0.0008504687    0.0000100000   -0.0000006250
   0.0001495313    0.0000000000    0.0000093750
  -0.0001604687   -0.0000100000    0.0000093750
   0.0016395312   -0.0000000000   -0.0000106250
  -0.0008504687    0.0000000000   -0.0000006250
   0.0001495313    0.0000000000   -0.0000006250
  -0.0001704687   -0.0000100000   -0.0000106250
  -0.0251504687   -0.0000000000   -0.0000006250
   0.0014095312    0.0000100000   -0.0000006250
  -0.0006104688   -0.0000000000   -0.0000006250
   0.0007695312   -0.0000100000   -0.0000006250
  -0.0006104688   -0.0000100000    0.0000093750
   0.0007695312    0.0000100000   -0.0000006250
  -0.0002404687    0.0000100000   -0.0000006250
   0.0002395313   -0.0000000000   -0.0000006250
  -0.0008504687    0.0000000000    0.0000093750
   0.0006095312    0.0000000000   -0.0000006250
  -0.0008704688    0.0000000000    0.0000093750
   0.0006195312   -0.0000000000    0.0000093750
  -0.0008504687    0.0000000000   -0.0000006250
   0.0006095312    0.0000000000   -0.0000106250
  -0.0008504687    0.0000000000   -0.0000106250
   0.0006095312   -0.0000100000   -0.0000106250
   0.0012395312    0.0000100000    0.0018893750
   0.0012595313   -0.0000000000   -0.0019006250
  -0.0000104687   -0.0000100000    0.0002193750
  -0.0000204687    0.0000000000   -0.0002006250
   0.0012395312    0.0000000000   -0.0018906250
   0.0012595313   -0.0000000000    0.0019093750
  -0.0000204687   -0.0000000000   -0.0002206250
  -0.0000204687   -0.0000000000    0.0001993750
   0.0012495312    0.0018800000   -0.0000006250
   0.0012495312   -0.0019000000   -0.0000006250
   0.0012395312   -0.0018800000   -0.0000106250
   0.0012695313    0.0019100000   -0.0000006250
  -0.0000004687    0.0002100000    0.0000093750
  -0.0000204687   -0.0002000000   -0.0000006250
  -0.0000204687   -0.0002200000   -0.0000006250
  -0.0000104687    0.0002100000   -0.0000006250
