default value
2.472958201 0 0 0 2.472958201 0 0 0 2.472958201
1.105385 0 0 0 1.105385 0 0 0 1.105385
-1.105385 0 0 0 -1.105385 0 0 0 -1.105385
