
     Program PWSCF v.5.4.0 starts on  3Sep2016 at 18:50:16 

     This program is part of the open-source Quantum ESPRESSO suite
     for quantum simulation of materials; please cite
         "P. Giannozzi et al., J. Phys.:Condens. Matter 21 395502 (2009);
          URL http://www.quantum-espresso.org", 
     in publications or presentations arising from this work. More details at
     http://www.quantum-espresso.org/quote

     Parallel version (MPI), running on    12 processors
     R & G space division:  proc/nbgrp/npool/nimage =      12
     Reading input from NaCl-001.in

     Current dimensions of program PWSCF are:
     Max number of different atomic species (ntypx) = 10
     Max number of k-points (npk) =  40000
     Max angular momentum in pseudopotentials (lmaxx) =  3
               file Na.pbe-spn-kjpaw_psl.0.2.UPF: wavefunction(s)  2P 3P renormalized
               file Cl.pbe-n-kjpaw_psl.0.1.UPF: wavefunction(s)  3S 3P renormalized

     Subspace diagonalization in iterative solution of the eigenvalue problem:
     one sub-group per band group will be used
     scalapack distributed-memory algorithm (size of sub-group:  2*  2 procs)

 
     Parallelization info
     --------------------
     sticks:   dense  smooth     PW     G-vecs:    dense   smooth      PW
     Min         858     858    221                65520    65520    8569
     Max         860     860    223                65521    65521    8570
     Sum       10309   10309   2661               786247   786247  102831
 


     bravais-lattice index     =            0
     lattice parameter (alat)  =      21.5062  a.u.
     unit-cell volume          =    9947.0070 (a.u.)^3
     number of atoms/cell      =           64
     number of atomic types    =            2
     number of electrons       =       512.00
     number of Kohn-Sham states=          307
     kinetic-energy cutoff     =      70.0000  Ry
     charge density cutoff     =     280.0000  Ry
     convergence threshold     =      1.0E-09
     mixing beta               =       0.7000
     number of iterations used =            8  plain     mixing
     Exchange-correlation      =  SLA  PW   PBX  PBC ( 1  4  3  4 0 0)

     celldm(1)=  21.506223  celldm(2)=   0.000000  celldm(3)=   0.000000
     celldm(4)=   0.000000  celldm(5)=   0.000000  celldm(6)=   0.000000

     crystal axes: (cart. coord. in units of alat)
               a(1) = (   1.000000   0.000000   0.000000 )  
               a(2) = (   0.000000   1.000000   0.000000 )  
               a(3) = (   0.000000   0.000000   1.000000 )  

     reciprocal axes: (cart. coord. in units 2 pi/alat)
               b(1) = (  1.000000  0.000000  0.000000 )  
               b(2) = (  0.000000  1.000000  0.000000 )  
               b(3) = (  0.000000  0.000000  1.000000 )  


     PseudoPot. # 1 for Na read from file:
     /home/togo/espresso/pseudo/Na.pbe-spn-kjpaw_psl.0.2.UPF
     MD5 check sum: cc8f2dd74ffbe928f7b69cf99ba9b327
     Pseudo is Projector augmented-wave, Zval =  9.0
     Generated using "atomic" code by A. Dal Corso  v.5.0.2 svn rev. 9415
     Shape of augmentation charge: PSQ
     Using radial grid of 1121 points,  4 beta functions with: 
                l(1) =   0
                l(2) =   0
                l(3) =   1
                l(4) =   1
     Q(r) pseudized with 0 coefficients 


     PseudoPot. # 2 for Cl read from file:
     /home/togo/espresso/pseudo/Cl.pbe-n-kjpaw_psl.0.1.UPF
     MD5 check sum: c57bcf6588f50c5ec919311ada3dc462
     Pseudo is Projector augmented-wave + core cor, Zval =  7.0
     Generated using "atomic" code by A. Dal Corso  v.5.0.2 svn rev. 9415
     Shape of augmentation charge: PSQ
     Using radial grid of 1157 points,  4 beta functions with: 
                l(1) =   0
                l(2) =   0
                l(3) =   1
                l(4) =   1
     Q(r) pseudized with 0 coefficients 


     atomic species   valence    mass     pseudopotential
        Na             9.00    22.98977     Na( 1.00)
        Cl             7.00    35.45300     Cl( 1.00)

      8 Sym. Ops. (no inversion) found



   Cartesian axes

     site n.     atom                  positions (alat units)
         1           Na  tau(   1) = (   0.0009300   0.0000000   0.0000000  )
         2           Na  tau(   2) = (   0.5000000   0.0000000   0.0000000  )
         3           Na  tau(   3) = (   0.0000000   0.5000000   0.0000000  )
         4           Na  tau(   4) = (   0.5000000   0.5000000   0.0000000  )
         5           Na  tau(   5) = (   0.0000000   0.0000000   0.5000000  )
         6           Na  tau(   6) = (   0.5000000   0.0000000   0.5000000  )
         7           Na  tau(   7) = (   0.0000000   0.5000000   0.5000000  )
         8           Na  tau(   8) = (   0.5000000   0.5000000   0.5000000  )
         9           Na  tau(   9) = (   0.0000000   0.2500000   0.2500000  )
        10           Na  tau(  10) = (   0.5000000   0.2500000   0.2500000  )
        11           Na  tau(  11) = (   0.0000000   0.7500000   0.2500000  )
        12           Na  tau(  12) = (   0.5000000   0.7500000   0.2500000  )
        13           Na  tau(  13) = (   0.0000000   0.2500000   0.7500000  )
        14           Na  tau(  14) = (   0.5000000   0.2500000   0.7500000  )
        15           Na  tau(  15) = (   0.0000000   0.7500000   0.7500000  )
        16           Na  tau(  16) = (   0.5000000   0.7500000   0.7500000  )
        17           Na  tau(  17) = (   0.2500000   0.0000000   0.2500000  )
        18           Na  tau(  18) = (   0.7500000   0.0000000   0.2500000  )
        19           Na  tau(  19) = (   0.2500000   0.5000000   0.2500000  )
        20           Na  tau(  20) = (   0.7500000   0.5000000   0.2500000  )
        21           Na  tau(  21) = (   0.2500000   0.0000000   0.7500000  )
        22           Na  tau(  22) = (   0.7500000   0.0000000   0.7500000  )
        23           Na  tau(  23) = (   0.2500000   0.5000000   0.7500000  )
        24           Na  tau(  24) = (   0.7500000   0.5000000   0.7500000  )
        25           Na  tau(  25) = (   0.2500000   0.2500000   0.0000000  )
        26           Na  tau(  26) = (   0.7500000   0.2500000   0.0000000  )
        27           Na  tau(  27) = (   0.2500000   0.7500000   0.0000000  )
        28           Na  tau(  28) = (   0.7500000   0.7500000   0.0000000  )
        29           Na  tau(  29) = (   0.2500000   0.2500000   0.5000000  )
        30           Na  tau(  30) = (   0.7500000   0.2500000   0.5000000  )
        31           Na  tau(  31) = (   0.2500000   0.7500000   0.5000000  )
        32           Na  tau(  32) = (   0.7500000   0.7500000   0.5000000  )
        33           Cl  tau(  33) = (   0.2500000   0.2500000   0.2500000  )
        34           Cl  tau(  34) = (   0.7500000   0.2500000   0.2500000  )
        35           Cl  tau(  35) = (   0.2500000   0.7500000   0.2500000  )
        36           Cl  tau(  36) = (   0.7500000   0.7500000   0.2500000  )
        37           Cl  tau(  37) = (   0.2500000   0.2500000   0.7500000  )
        38           Cl  tau(  38) = (   0.7500000   0.2500000   0.7500000  )
        39           Cl  tau(  39) = (   0.2500000   0.7500000   0.7500000  )
        40           Cl  tau(  40) = (   0.7500000   0.7500000   0.7500000  )
        41           Cl  tau(  41) = (   0.2500000   0.0000000   0.0000000  )
        42           Cl  tau(  42) = (   0.7500000   0.0000000   0.0000000  )
        43           Cl  tau(  43) = (   0.2500000   0.5000000   0.0000000  )
        44           Cl  tau(  44) = (   0.7500000   0.5000000   0.0000000  )
        45           Cl  tau(  45) = (   0.2500000   0.0000000   0.5000000  )
        46           Cl  tau(  46) = (   0.7500000   0.0000000   0.5000000  )
        47           Cl  tau(  47) = (   0.2500000   0.5000000   0.5000000  )
        48           Cl  tau(  48) = (   0.7500000   0.5000000   0.5000000  )
        49           Cl  tau(  49) = (   0.0000000   0.2500000   0.0000000  )
        50           Cl  tau(  50) = (   0.5000000   0.2500000   0.0000000  )
        51           Cl  tau(  51) = (   0.0000000   0.7500000   0.0000000  )
        52           Cl  tau(  52) = (   0.5000000   0.7500000   0.0000000  )
        53           Cl  tau(  53) = (   0.0000000   0.2500000   0.5000000  )
        54           Cl  tau(  54) = (   0.5000000   0.2500000   0.5000000  )
        55           Cl  tau(  55) = (   0.0000000   0.7500000   0.5000000  )
        56           Cl  tau(  56) = (   0.5000000   0.7500000   0.5000000  )
        57           Cl  tau(  57) = (   0.0000000   0.0000000   0.2500000  )
        58           Cl  tau(  58) = (   0.5000000   0.0000000   0.2500000  )
        59           Cl  tau(  59) = (   0.0000000   0.5000000   0.2500000  )
        60           Cl  tau(  60) = (   0.5000000   0.5000000   0.2500000  )
        61           Cl  tau(  61) = (   0.0000000   0.0000000   0.7500000  )
        62           Cl  tau(  62) = (   0.5000000   0.0000000   0.7500000  )
        63           Cl  tau(  63) = (   0.0000000   0.5000000   0.7500000  )
        64           Cl  tau(  64) = (   0.5000000   0.5000000   0.7500000  )

     number of k points=     1  gaussian smearing, width (Ry)=  0.0100
                       cart. coord. in units 2pi/alat
        k(    1) = (   0.2500000   0.2500000   0.2500000), wk =   2.0000000

     Dense  grid:   786247 G-vectors     FFT dimensions: ( 120, 120, 120)

     Largest allocated arrays     est. size (Mb)     dimensions
        Kohn-Sham Wavefunctions        38.29 Mb     (    8174,  307)
        NL pseudopotentials            63.86 Mb     (    8174,  512)
        Each V/rho on FFT grid          2.20 Mb     (  144000)
        Each G-vector array             0.50 Mb     (   65521)
        G-vector shells                 0.02 Mb     (    2696)
     Largest temporary arrays     est. size (Mb)     dimensions
        Auxiliary wavefunctions       153.16 Mb     (    8174, 1228)
        Each subspace H/S matrix        5.75 Mb     (     614,  614)
        Each <psi_i|beta_j> matrix      2.40 Mb     (     512,  307)
        Arrays for rho mixing          17.58 Mb     (  144000,    8)

     Check: negative/imaginary core charge=   -0.000005    0.000000

     Initial potential from superposition of free atoms

     starting charge  495.97294, renormalised to  512.00000
     Starting wfc are  384 randomized atomic wfcs
     Checking if some PAW data can be deallocated... 

     total cpu time spent up to now is        6.1 secs

     Self-consistent Calculation

     iteration #  1     ecut=    70.00 Ry     beta=0.70
     Davidson diagonalization with overlap
     ethr =  1.00E-02,  avg # of iterations =  4.0

     total cpu time spent up to now is       23.6 secs

     total energy              =   -6041.32051289 Ry
     Harris-Foulkes estimate   =   -6045.74208646 Ry
     estimated scf accuracy    <       5.20851044 Ry

     iteration #  2     ecut=    70.00 Ry     beta=0.70
     Davidson diagonalization with overlap
     ethr =  1.02E-03,  avg # of iterations =  5.0

     total cpu time spent up to now is       50.0 secs

     total energy              =   -6043.05889347 Ry
     Harris-Foulkes estimate   =   -6043.59904157 Ry
     estimated scf accuracy    <       0.71245463 Ry

     iteration #  3     ecut=    70.00 Ry     beta=0.70
     Davidson diagonalization with overlap
     c_bands:  1 eigenvalues not converged
     ethr =  1.39E-04,  avg # of iterations = 20.0

     total cpu time spent up to now is      107.2 secs

     total energy              =   -6043.23760534 Ry
     Harris-Foulkes estimate   =   -6043.25547630 Ry
     estimated scf accuracy    <       0.02103206 Ry

     iteration #  4     ecut=    70.00 Ry     beta=0.70
     Davidson diagonalization with overlap
     ethr =  4.11E-06,  avg # of iterations =  6.0

     total cpu time spent up to now is      135.3 secs

     total energy              =   -6043.24495967 Ry
     Harris-Foulkes estimate   =   -6043.24675967 Ry
     estimated scf accuracy    <       0.00350141 Ry

     iteration #  5     ecut=    70.00 Ry     beta=0.70
     Davidson diagonalization with overlap
     ethr =  6.84E-07,  avg # of iterations =  3.0

     total cpu time spent up to now is      154.6 secs

     total energy              =   -6043.24551345 Ry
     Harris-Foulkes estimate   =   -6043.24552666 Ry
     estimated scf accuracy    <       0.00006141 Ry

     iteration #  6     ecut=    70.00 Ry     beta=0.70
     Davidson diagonalization with overlap
     ethr =  1.20E-08,  avg # of iterations =  4.0

     total cpu time spent up to now is      183.0 secs

     total energy              =   -6043.24556343 Ry
     Harris-Foulkes estimate   =   -6043.24556307 Ry
     estimated scf accuracy    <       0.00000196 Ry

     iteration #  7     ecut=    70.00 Ry     beta=0.70
     Davidson diagonalization with overlap
     ethr =  3.82E-10,  avg # of iterations =  3.0

     total cpu time spent up to now is      203.0 secs

     total energy              =   -6043.24556386 Ry
     Harris-Foulkes estimate   =   -6043.24556390 Ry
     estimated scf accuracy    <       0.00000027 Ry

     iteration #  8     ecut=    70.00 Ry     beta=0.70
     Davidson diagonalization with overlap
     ethr =  5.28E-11,  avg # of iterations =  3.0

     total cpu time spent up to now is      223.0 secs

     total energy              =   -6043.24556393 Ry
     Harris-Foulkes estimate   =   -6043.24556391 Ry
     estimated scf accuracy    <       0.00000003 Ry

     iteration #  9     ecut=    70.00 Ry     beta=0.70
     Davidson diagonalization with overlap
     ethr =  5.38E-12,  avg # of iterations =  3.0

     total cpu time spent up to now is      243.1 secs

     total energy              =   -6043.24556394 Ry
     Harris-Foulkes estimate   =   -6043.24556394 Ry
     estimated scf accuracy    <          1.1E-09 Ry

     iteration # 10     ecut=    70.00 Ry     beta=0.70
     Davidson diagonalization with overlap
     ethr =  2.22E-13,  avg # of iterations =  4.0

     total cpu time spent up to now is      266.6 secs

     End of self-consistent calculation

          k = 0.2500 0.2500 0.2500 ( 98322 PWs)   bands (ev):

   -48.1203 -48.1201 -48.1201 -48.1200 -48.1187 -48.1185 -48.1185 -48.1184
   -48.1183 -48.1182 -48.1182 -48.1182 -48.1181 -48.1181 -48.1181 -48.1181
   -48.1180 -48.1180 -48.1180 -48.1180 -48.1180 -48.1180 -48.1179 -48.1179
   -48.1176 -48.1176 -48.1176 -48.1175 -48.1161 -48.1160 -48.1160 -48.1159
   -20.0531 -20.0530 -20.0529 -20.0515 -20.0488 -20.0487 -20.0484 -20.0483
   -20.0483 -20.0483 -20.0481 -20.0480 -20.0478 -20.0470 -20.0466 -20.0465
   -20.0461 -20.0460 -20.0456 -20.0455 -20.0455 -20.0453 -20.0452 -20.0449
   -20.0449 -20.0447 -20.0447 -20.0445 -20.0403 -20.0402 -20.0402 -20.0401
   -20.0401 -20.0400 -20.0396 -20.0395 -20.0393 -20.0391 -20.0390 -20.0388
   -20.0381 -20.0380 -20.0379 -20.0367 -20.0366 -20.0365 -20.0365 -20.0364
   -20.0362 -20.0361 -20.0360 -20.0360 -20.0358 -20.0357 -20.0357 -20.0356
   -20.0354 -20.0351 -20.0346 -20.0346 -20.0345 -20.0342 -20.0340 -20.0339
   -20.0338 -20.0337 -20.0335 -20.0335 -20.0332 -20.0331 -20.0331 -20.0328
   -20.0327 -20.0327 -20.0326 -20.0326 -20.0325 -20.0325 -20.0322 -20.0320
   -20.0320 -20.0319 -20.0316 -20.0315 -20.0314 -20.0312 -20.0311 -20.0310
   -20.0308 -20.0306 -20.0304 -20.0302 -20.0301 -20.0296 -20.0295 -20.0293
   -11.7140 -11.6188 -11.6179 -11.6172 -11.5458 -11.5450 -11.5442 -11.4968
   -11.4925 -11.4917 -11.4909 -11.4560 -11.4542 -11.4542 -11.4542 -11.4542
   -11.4529 -11.4431 -11.4430 -11.4429 -11.4169 -11.4160 -11.4153 -11.4102
   -11.4101 -11.4099 -11.4008 -11.3996 -11.3996 -11.3996 -11.3996 -11.3976
    -0.8874  -0.8874  -0.8874  -0.7830  -0.6658  -0.6658  -0.6658  -0.6358
    -0.6349  -0.6341  -0.6261  -0.6257  -0.6253  -0.6253  -0.6249  -0.6246
    -0.5201  -0.5201  -0.5195  -0.5195  -0.5190  -0.5189  -0.4830  -0.4824
    -0.4818  -0.4217  -0.4216  -0.4215  -0.1146  -0.1146  -0.1143  -0.1143
    -0.1140  -0.1140  -0.0591  -0.0588  -0.0585  -0.0383  -0.0380  -0.0378
     0.1489   0.1489   0.1489   0.1899   0.1901   0.1905   0.1905   0.1909
     0.1911   0.2862   0.2864   0.2869   0.2869   0.2874   0.2876   0.3165
     0.3165   0.3165   0.3739   0.3739   0.3739   0.4176   0.4176   0.4176
     0.4490   0.4494   0.4499   0.4690   0.4696   0.4700   0.4839   0.4844
     0.4847   0.4898   0.5020   0.5028   0.5030   0.5030   0.5031   0.5041
     0.5436   0.5436   0.5436   0.6285   0.6285   0.6504   0.6509   0.6513
     0.6599   0.6608   0.6616   0.6888   0.6892   0.6896   0.8041   0.8041
     6.3306   7.3114   7.3118   7.3123   7.9309   7.9340   7.9344   7.9349
     8.4238   8.4238   8.4239   8.4363   8.4368   8.4372   8.5676   8.5676
     8.5677   8.8886   8.8886   8.8892   8.8892   8.8897   8.8897   9.2238
     9.2239   9.2239   9.2293   9.2299   9.2305   9.3201   9.3204   9.3207
     9.3207   9.3211   9.3214   9.6885   9.6890   9.6895   9.9111   9.9113
     9.9118   9.9118   9.9123   9.9125  10.1659  10.1661  10.1664  10.2851
    10.2853  10.2856  10.2860

     the Fermi energy is     3.1893 ev

!    total energy              =   -6043.24556394 Ry
     Harris-Foulkes estimate   =   -6043.24556394 Ry
     estimated scf accuracy    <          9.0E-11 Ry

     total all-electron energy =    -39940.429322 Ry

     The total energy is the sum of the following terms:

     one-electron contribution =   -2623.52309862 Ry
     hartree contribution      =    1363.88613776 Ry
     xc contribution           =    -789.46169448 Ry
     ewald contribution        =   -2182.32845246 Ry
     one-center paw contrib.   =   -1811.81845614 Ry
     smearing contrib. (-TS)   =      -0.00000000 Ry

     convergence has been achieved in  10 iterations

     Forces acting on atoms (Ry/au):

     atom    1 type  1   force =    -0.00075478    0.00000000    0.00000000
     atom    2 type  1   force =     0.00012195    0.00000000    0.00000000
     atom    3 type  1   force =    -0.00000021    0.00000000    0.00000000
     atom    4 type  1   force =     0.00000366    0.00000000    0.00000000
     atom    5 type  1   force =    -0.00000021    0.00000000    0.00000000
     atom    6 type  1   force =     0.00000366    0.00000000    0.00000000
     atom    7 type  1   force =    -0.00000473    0.00000000    0.00000000
     atom    8 type  1   force =     0.00000497    0.00000000    0.00000000
     atom    9 type  1   force =    -0.00002186    0.00000066    0.00000066
     atom   10 type  1   force =     0.00001520    0.00000044    0.00000044
     atom   11 type  1   force =    -0.00002186   -0.00000066    0.00000066
     atom   12 type  1   force =     0.00001520   -0.00000044    0.00000044
     atom   13 type  1   force =    -0.00002186    0.00000066   -0.00000066
     atom   14 type  1   force =     0.00001520    0.00000044   -0.00000044
     atom   15 type  1   force =    -0.00002186   -0.00000066   -0.00000066
     atom   16 type  1   force =     0.00001520   -0.00000044   -0.00000044
     atom   17 type  1   force =     0.00002068    0.00000000    0.00008062
     atom   18 type  1   force =     0.00002004    0.00000000   -0.00007838
     atom   19 type  1   force =    -0.00000038    0.00000000   -0.00000071
     atom   20 type  1   force =    -0.00000026    0.00000000    0.00000093
     atom   21 type  1   force =     0.00002068    0.00000000   -0.00008062
     atom   22 type  1   force =     0.00002004    0.00000000    0.00007838
     atom   23 type  1   force =    -0.00000038    0.00000000    0.00000071
     atom   24 type  1   force =    -0.00000026    0.00000000   -0.00000093
     atom   25 type  1   force =     0.00002068    0.00008062    0.00000000
     atom   26 type  1   force =     0.00002004   -0.00007838    0.00000000
     atom   27 type  1   force =     0.00002068   -0.00008062    0.00000000
     atom   28 type  1   force =     0.00002004    0.00007838    0.00000000
     atom   29 type  1   force =    -0.00000038   -0.00000071    0.00000000
     atom   30 type  1   force =    -0.00000026    0.00000093   -0.00000000
     atom   31 type  1   force =    -0.00000038    0.00000071   -0.00000000
     atom   32 type  1   force =    -0.00000026   -0.00000093    0.00000000
     atom   33 type  2   force =    -0.00000285   -0.00001802   -0.00001802
     atom   34 type  2   force =    -0.00000286    0.00001741    0.00001741
     atom   35 type  2   force =    -0.00000285    0.00001802   -0.00001802
     atom   36 type  2   force =    -0.00000286   -0.00001741    0.00001741
     atom   37 type  2   force =    -0.00000285   -0.00001802    0.00001802
     atom   38 type  2   force =    -0.00000286    0.00001741   -0.00001741
     atom   39 type  2   force =    -0.00000285    0.00001802    0.00001802
     atom   40 type  2   force =    -0.00000286   -0.00001741   -0.00001741
     atom   41 type  2   force =     0.00019766    0.00000000    0.00000000
     atom   42 type  2   force =     0.00018103    0.00000000    0.00000000
     atom   43 type  2   force =     0.00000215    0.00000000    0.00000000
     atom   44 type  2   force =     0.00000229    0.00000000    0.00000000
     atom   45 type  2   force =     0.00000215    0.00000000    0.00000000
     atom   46 type  2   force =     0.00000229    0.00000000    0.00000000
     atom   47 type  2   force =     0.00000003    0.00000000    0.00000000
     atom   48 type  2   force =     0.00000014    0.00000000    0.00000000
     atom   49 type  2   force =     0.00007125   -0.00000078    0.00000000
     atom   50 type  2   force =    -0.00003881   -0.00000050    0.00000000
     atom   51 type  2   force =     0.00007125    0.00000078    0.00000000
     atom   52 type  2   force =    -0.00003881    0.00000050    0.00000000
     atom   53 type  2   force =     0.00000817   -0.00000016    0.00000000
     atom   54 type  2   force =    -0.00000883    0.00000009    0.00000000
     atom   55 type  2   force =     0.00000817    0.00000016    0.00000000
     atom   56 type  2   force =    -0.00000883   -0.00000009    0.00000000
     atom   57 type  2   force =     0.00007125    0.00000000   -0.00000078
     atom   58 type  2   force =    -0.00003881    0.00000000   -0.00000050
     atom   59 type  2   force =     0.00000817    0.00000000   -0.00000016
     atom   60 type  2   force =    -0.00000883    0.00000000    0.00000009
     atom   61 type  2   force =     0.00007125   -0.00000000    0.00000078
     atom   62 type  2   force =    -0.00003881    0.00000000    0.00000050
     atom   63 type  2   force =     0.00000817   -0.00000000    0.00000016
     atom   64 type  2   force =    -0.00000883    0.00000000   -0.00000009

     Total force =     0.000863     Total SCF correction =     0.000021


     entering subroutine stress ...

          total   stress  (Ry/bohr**3)                   (kbar)     P=    0.67
   0.00000456   0.00000000   0.00000000          0.67      0.00      0.00
   0.00000000   0.00000455   0.00000000          0.00      0.67      0.00
   0.00000000   0.00000000   0.00000455          0.00      0.00      0.67

 
     init_run     :      5.35s CPU      5.76s WALL (       1 calls)
     electrons    :    236.31s CPU    260.55s WALL (       1 calls)
     forces       :      2.24s CPU      2.32s WALL (       1 calls)
     stress       :     15.31s CPU     15.46s WALL (       1 calls)

     Called by init_run:
     wfcinit      :      4.28s CPU      4.56s WALL (       1 calls)
     potinit      :      0.40s CPU      0.44s WALL (       1 calls)

     Called by electrons:
     c_bands      :    215.59s CPU    237.91s WALL (      10 calls)
     sum_band     :     15.74s CPU     16.95s WALL (      10 calls)
     v_of_rho     :      1.26s CPU      1.39s WALL (      11 calls)
     newd         :      1.42s CPU      1.86s WALL (      11 calls)
     PAW_pot      :      2.47s CPU      2.59s WALL (      11 calls)
     mix_rho      :      0.23s CPU      0.33s WALL (      10 calls)

     Called by c_bands:
     init_us_2    :      0.43s CPU      0.47s WALL (      21 calls)
     cegterg      :    213.83s CPU    236.12s WALL (      10 calls)

     Called by sum_band:
     sum_band:bec :      0.03s CPU      0.12s WALL (      10 calls)
     addusdens    :      1.69s CPU      2.11s WALL (      10 calls)

     Called by *egterg:
     h_psi        :     81.46s CPU     85.98s WALL (      66 calls)
     s_psi        :      9.65s CPU     10.49s WALL (      66 calls)
     g_psi        :      1.01s CPU      1.01s WALL (      55 calls)
     cdiaghg      :     60.02s CPU     67.67s WALL (      65 calls)

     Called by h_psi:
     add_vuspsi   :     11.97s CPU     12.96s WALL (      66 calls)

     General routines
     calbec       :     14.24s CPU     14.35s WALL (      81 calls)
     fft          :      1.97s CPU      2.08s WALL (     167 calls)
     fftw         :     55.46s CPU     59.58s WALL (   21236 calls)
 
     Parallel routines
     fft_scatter  :     23.14s CPU     23.88s WALL (   21403 calls)
 
     PWSCF        :  4m19.54s CPU     4m44.43s WALL

 
   This run was terminated on:  18:55: 0   3Sep2016            

=------------------------------------------------------------------------------=
   JOB DONE.
=------------------------------------------------------------------------------=
