
     Program PWSCF v.5.1 starts on 30Oct2014 at 21:15:27 

     This program is part of the open-source Quantum ESPRESSO suite
     for quantum simulation of materials; please cite
         "P. Giannozzi et al., J. Phys.:Condens. Matter 21 395502 (2009);
          URL http://www.quantum-espresso.org", 
     in publications or presentations arising from this work. More details at
     http://www.quantum-espresso.org/quote

     Parallel version (MPI), running on    16 processors
     R & G space division:  proc/nbgrp/npool/nimage =      16
     Reading input from NaCl.in
Warning: card  &IONS ignored
Warning: card     ION_DYNAMICS = 'BFGS' ignored
Warning: card  / ignored
Warning: card  &CELL ignored
Warning: card     CELL_DYNAMICS = 'BFGS' ignored
Warning: card     PRESS = 0.0 ignored
Warning: card  / ignored

     Current dimensions of program PWSCF are:
     Max number of different atomic species (ntypx) = 10
     Max number of k-points (npk) =  40000
     Max angular momentum in pseudopotentials (lmaxx) =  3
               file Na.pbe-spn-kjpaw_psl.0.2.UPF: wavefunction(s)  2P 3P renormalized
               file Cl.pbe-n-kjpaw_psl.0.1.UPF: wavefunction(s)  3S 3P renormalized

     Subspace diagonalization in iterative solution of the eigenvalue problem:
     scalapack distributed-memory algorithm (size of sub-group:  2*  2 procs)

 
     Parallelization info
     --------------------
     sticks:   dense  smooth     PW     G-vecs:    dense   smooth      PW
     Min         551     551    142                39017    39017    5126
     Max         552     552    143                39020    39020    5129
     Sum        8825    8825   2285               624307   624307   82057
 


     bravais-lattice index     =            0
     lattice parameter (alat)  =      21.5062  a.u.
     unit-cell volume          =    9947.0070 (a.u.)^3
     number of atoms/cell      =           64
     number of atomic types    =            2
     number of electrons       =       512.00
     number of Kohn-Sham states=          307
     kinetic-energy cutoff     =      60.0000  Ry
     charge density cutoff     =     240.0000  Ry
     convergence threshold     =      1.0E-09
     mixing beta               =       0.7000
     number of iterations used =            8  plain     mixing
     Exchange-correlation      =  SLA  PW   PBX  PBC ( 1  4  3  4 0)

     celldm(1)=  21.506223  celldm(2)=   0.000000  celldm(3)=   0.000000
     celldm(4)=   0.000000  celldm(5)=   0.000000  celldm(6)=   0.000000

     crystal axes: (cart. coord. in units of alat)
               a(1) = (   1.000000   0.000000   0.000000 )  
               a(2) = (   0.000000   1.000000   0.000000 )  
               a(3) = (   0.000000   0.000000   1.000000 )  

     reciprocal axes: (cart. coord. in units 2 pi/alat)
               b(1) = (  1.000000  0.000000  0.000000 )  
               b(2) = (  0.000000  1.000000  0.000000 )  
               b(3) = (  0.000000  0.000000  1.000000 )  


     PseudoPot. # 1 for Na read from file:
     /home/togo/espresso/pseudo/Na.pbe-spn-kjpaw_psl.0.2.UPF
     MD5 check sum: cc8f2dd74ffbe928f7b69cf99ba9b327
     Pseudo is Projector augmented-wave, Zval =  9.0
     Generated using "atomic" code by A. Dal Corso  v.5.0.2 svn rev. 9415
     Shape of augmentation charge: PSQ
     Using radial grid of 1121 points,  4 beta functions with: 
                l(1) =   0
                l(2) =   0
                l(3) =   1
                l(4) =   1
     Q(r) pseudized with 0 coefficients 


     PseudoPot. # 2 for Cl read from file:
     /home/togo/espresso/pseudo/Cl.pbe-n-kjpaw_psl.0.1.UPF
     MD5 check sum: c57bcf6588f50c5ec919311ada3dc462
     Pseudo is Projector augmented-wave + core cor, Zval =  7.0
     Generated using "atomic" code by A. Dal Corso  v.5.0.2 svn rev. 9415
     Shape of augmentation charge: PSQ
     Using radial grid of 1157 points,  4 beta functions with: 
                l(1) =   0
                l(2) =   0
                l(3) =   1
                l(4) =   1
     Q(r) pseudized with 0 coefficients 


     atomic species   valence    mass     pseudopotential
        Na             9.00    22.98977     Na( 1.00)
        Cl             7.00    35.45300     Cl( 1.00)

      8 Sym. Ops. (no inversion) found



   Cartesian axes

     site n.     atom                  positions (alat units)
         1           Na  tau(   1) = (   0.0009300   0.0000000   0.0000000  )
         2           Na  tau(   2) = (   0.5000000   0.0000000   0.0000000  )
         3           Na  tau(   3) = (   0.0000000   0.5000000   0.0000000  )
         4           Na  tau(   4) = (   0.5000000   0.5000000   0.0000000  )
         5           Na  tau(   5) = (   0.0000000   0.0000000   0.5000000  )
         6           Na  tau(   6) = (   0.5000000   0.0000000   0.5000000  )
         7           Na  tau(   7) = (   0.0000000   0.5000000   0.5000000  )
         8           Na  tau(   8) = (   0.5000000   0.5000000   0.5000000  )
         9           Na  tau(   9) = (   0.0000000   0.2500000   0.2500000  )
        10           Na  tau(  10) = (   0.5000000   0.2500000   0.2500000  )
        11           Na  tau(  11) = (   0.0000000   0.7500000   0.2500000  )
        12           Na  tau(  12) = (   0.5000000   0.7500000   0.2500000  )
        13           Na  tau(  13) = (   0.0000000   0.2500000   0.7500000  )
        14           Na  tau(  14) = (   0.5000000   0.2500000   0.7500000  )
        15           Na  tau(  15) = (   0.0000000   0.7500000   0.7500000  )
        16           Na  tau(  16) = (   0.5000000   0.7500000   0.7500000  )
        17           Na  tau(  17) = (   0.2500000   0.0000000   0.2500000  )
        18           Na  tau(  18) = (   0.7500000   0.0000000   0.2500000  )
        19           Na  tau(  19) = (   0.2500000   0.5000000   0.2500000  )
        20           Na  tau(  20) = (   0.7500000   0.5000000   0.2500000  )
        21           Na  tau(  21) = (   0.2500000   0.0000000   0.7500000  )
        22           Na  tau(  22) = (   0.7500000   0.0000000   0.7500000  )
        23           Na  tau(  23) = (   0.2500000   0.5000000   0.7500000  )
        24           Na  tau(  24) = (   0.7500000   0.5000000   0.7500000  )
        25           Na  tau(  25) = (   0.2500000   0.2500000   0.0000000  )
        26           Na  tau(  26) = (   0.7500000   0.2500000   0.0000000  )
        27           Na  tau(  27) = (   0.2500000   0.7500000   0.0000000  )
        28           Na  tau(  28) = (   0.7500000   0.7500000   0.0000000  )
        29           Na  tau(  29) = (   0.2500000   0.2500000   0.5000000  )
        30           Na  tau(  30) = (   0.7500000   0.2500000   0.5000000  )
        31           Na  tau(  31) = (   0.2500000   0.7500000   0.5000000  )
        32           Na  tau(  32) = (   0.7500000   0.7500000   0.5000000  )
        33           Cl  tau(  33) = (   0.2500000   0.2500000   0.2500000  )
        34           Cl  tau(  34) = (   0.7500000   0.2500000   0.2500000  )
        35           Cl  tau(  35) = (   0.2500000   0.7500000   0.2500000  )
        36           Cl  tau(  36) = (   0.7500000   0.7500000   0.2500000  )
        37           Cl  tau(  37) = (   0.2500000   0.2500000   0.7500000  )
        38           Cl  tau(  38) = (   0.7500000   0.2500000   0.7500000  )
        39           Cl  tau(  39) = (   0.2500000   0.7500000   0.7500000  )
        40           Cl  tau(  40) = (   0.7500000   0.7500000   0.7500000  )
        41           Cl  tau(  41) = (   0.2500000   0.0000000   0.0000000  )
        42           Cl  tau(  42) = (   0.7500000   0.0000000   0.0000000  )
        43           Cl  tau(  43) = (   0.2500000   0.5000000   0.0000000  )
        44           Cl  tau(  44) = (   0.7500000   0.5000000   0.0000000  )
        45           Cl  tau(  45) = (   0.2500000   0.0000000   0.5000000  )
        46           Cl  tau(  46) = (   0.7500000   0.0000000   0.5000000  )
        47           Cl  tau(  47) = (   0.2500000   0.5000000   0.5000000  )
        48           Cl  tau(  48) = (   0.7500000   0.5000000   0.5000000  )
        49           Cl  tau(  49) = (   0.0000000   0.2500000   0.0000000  )
        50           Cl  tau(  50) = (   0.5000000   0.2500000   0.0000000  )
        51           Cl  tau(  51) = (   0.0000000   0.7500000   0.0000000  )
        52           Cl  tau(  52) = (   0.5000000   0.7500000   0.0000000  )
        53           Cl  tau(  53) = (   0.0000000   0.2500000   0.5000000  )
        54           Cl  tau(  54) = (   0.5000000   0.2500000   0.5000000  )
        55           Cl  tau(  55) = (   0.0000000   0.7500000   0.5000000  )
        56           Cl  tau(  56) = (   0.5000000   0.7500000   0.5000000  )
        57           Cl  tau(  57) = (   0.0000000   0.0000000   0.2500000  )
        58           Cl  tau(  58) = (   0.5000000   0.0000000   0.2500000  )
        59           Cl  tau(  59) = (   0.0000000   0.5000000   0.2500000  )
        60           Cl  tau(  60) = (   0.5000000   0.5000000   0.2500000  )
        61           Cl  tau(  61) = (   0.0000000   0.0000000   0.7500000  )
        62           Cl  tau(  62) = (   0.5000000   0.0000000   0.7500000  )
        63           Cl  tau(  63) = (   0.0000000   0.5000000   0.7500000  )
        64           Cl  tau(  64) = (   0.5000000   0.5000000   0.7500000  )

     number of k points=     1  gaussian smearing, width (Ry)=  0.0100
                       cart. coord. in units 2pi/alat
        k(    1) = (   0.2500000   0.2500000   0.2500000), wk =   2.0000000

     Dense  grid:   624307 G-vectors     FFT dimensions: ( 108, 108, 108)

     Largest allocated arrays     est. size (Mb)     dimensions
        Kohn-Sham Wavefunctions        22.91 Mb     (    4891,  307)
        NL pseudopotentials            38.21 Mb     (    4891,  512)
        Each V/rho on FFT grid          1.25 Mb     (   81648)
        Each G-vector array             0.30 Mb     (   39020)
        G-vector shells                 0.02 Mb     (    2282)
     Largest temporary arrays     est. size (Mb)     dimensions
        Auxiliary wavefunctions        91.65 Mb     (    4891, 1228)
        Each subspace H/S matrix        5.75 Mb     (     614,  614)
        Each <psi_i|beta_j> matrix      2.40 Mb     (     512,  307)
        Arrays for rho mixing           9.97 Mb     (   81648,    8)

     Check: negative/imaginary core charge=   -0.000006    0.000000

     Initial potential from superposition of free atoms

     starting charge  495.97294, renormalised to  512.00000
     Starting wfc are  384 randomized atomic wfcs
     Checking if some PAW data can be deallocated... 

     total cpu time spent up to now is        7.0 secs

     per-process dynamical memory:   122.1 Mb

     Self-consistent Calculation

     iteration #  1     ecut=    60.00 Ry     beta=0.70
     Davidson diagonalization with overlap
     ethr =  1.00E-02,  avg # of iterations =  4.0

     total cpu time spent up to now is       24.7 secs

     total energy              =   -6041.31668444 Ry
     Harris-Foulkes estimate   =   -6045.74348970 Ry
     estimated scf accuracy    <       5.21399168 Ry

     iteration #  2     ecut=    60.00 Ry     beta=0.70
     Davidson diagonalization with overlap
     ethr =  1.02E-03,  avg # of iterations =  5.0

     total cpu time spent up to now is       51.3 secs

     total energy              =   -6043.05803779 Ry
     Harris-Foulkes estimate   =   -6043.59911595 Ry
     estimated scf accuracy    <       0.71296044 Ry

     iteration #  3     ecut=    60.00 Ry     beta=0.70
     Davidson diagonalization with overlap
     ethr =  1.39E-04,  avg # of iterations = 15.0

     total cpu time spent up to now is       93.7 secs

     total energy              =   -6043.23686627 Ry
     Harris-Foulkes estimate   =   -6043.25468020 Ry
     estimated scf accuracy    <       0.02096216 Ry

     iteration #  4     ecut=    60.00 Ry     beta=0.70
     Davidson diagonalization with overlap
     ethr =  4.09E-06,  avg # of iterations =  7.0

     total cpu time spent up to now is      122.9 secs

     total energy              =   -6043.24421610 Ry
     Harris-Foulkes estimate   =   -6043.24602394 Ry
     estimated scf accuracy    <       0.00352174 Ry

     iteration #  5     ecut=    60.00 Ry     beta=0.70
     Davidson diagonalization with overlap
     ethr =  6.88E-07,  avg # of iterations =  3.0

     total cpu time spent up to now is      142.2 secs

     total energy              =   -6043.24477613 Ry
     Harris-Foulkes estimate   =   -6043.24478995 Ry
     estimated scf accuracy    <       0.00006327 Ry

     iteration #  6     ecut=    60.00 Ry     beta=0.70
     Davidson diagonalization with overlap
     ethr =  1.24E-08,  avg # of iterations =  4.0

     total cpu time spent up to now is      170.6 secs

     total energy              =   -6043.24482538 Ry
     Harris-Foulkes estimate   =   -6043.24482524 Ry
     estimated scf accuracy    <       0.00000207 Ry

     iteration #  7     ecut=    60.00 Ry     beta=0.70
     Davidson diagonalization with overlap
     ethr =  4.04E-10,  avg # of iterations =  2.0

     total cpu time spent up to now is      188.8 secs

     total energy              =   -6043.24482583 Ry
     Harris-Foulkes estimate   =   -6043.24482585 Ry
     estimated scf accuracy    <       0.00000023 Ry

     iteration #  8     ecut=    60.00 Ry     beta=0.70
     Davidson diagonalization with overlap
     ethr =  4.47E-11,  avg # of iterations =  3.0

     total cpu time spent up to now is      208.4 secs

     total energy              =   -6043.24482591 Ry
     Harris-Foulkes estimate   =   -6043.24482588 Ry
     estimated scf accuracy    <       0.00000002 Ry

     iteration #  9     ecut=    60.00 Ry     beta=0.70
     Davidson diagonalization with overlap
     ethr =  3.42E-12,  avg # of iterations =  4.0

     total cpu time spent up to now is      229.6 secs

     End of self-consistent calculation

          k = 0.2500 0.2500 0.2500 ( 78049 PWs)   bands (ev):

   -48.1205 -48.1204 -48.1204 -48.1203 -48.1191 -48.1189 -48.1189 -48.1188
   -48.1187 -48.1185 -48.1185 -48.1185 -48.1185 -48.1184 -48.1184 -48.1184
   -48.1184 -48.1184 -48.1183 -48.1183 -48.1183 -48.1183 -48.1182 -48.1182
   -48.1180 -48.1179 -48.1179 -48.1178 -48.1164 -48.1163 -48.1163 -48.1162
   -20.0535 -20.0534 -20.0533 -20.0519 -20.0492 -20.0490 -20.0488 -20.0487
   -20.0487 -20.0486 -20.0485 -20.0484 -20.0482 -20.0474 -20.0470 -20.0469
   -20.0465 -20.0464 -20.0460 -20.0459 -20.0459 -20.0457 -20.0456 -20.0453
   -20.0452 -20.0451 -20.0451 -20.0449 -20.0407 -20.0406 -20.0406 -20.0405
   -20.0405 -20.0404 -20.0400 -20.0398 -20.0397 -20.0394 -20.0394 -20.0392
   -20.0385 -20.0383 -20.0382 -20.0371 -20.0370 -20.0369 -20.0369 -20.0367
   -20.0366 -20.0365 -20.0364 -20.0364 -20.0361 -20.0361 -20.0360 -20.0359
   -20.0357 -20.0354 -20.0350 -20.0349 -20.0348 -20.0345 -20.0344 -20.0343
   -20.0341 -20.0341 -20.0338 -20.0338 -20.0335 -20.0335 -20.0335 -20.0332
   -20.0330 -20.0330 -20.0330 -20.0329 -20.0329 -20.0328 -20.0326 -20.0324
   -20.0323 -20.0323 -20.0320 -20.0318 -20.0318 -20.0316 -20.0315 -20.0314
   -20.0312 -20.0309 -20.0308 -20.0306 -20.0305 -20.0300 -20.0298 -20.0297
   -11.7138 -11.6185 -11.6177 -11.6169 -11.5456 -11.5447 -11.5440 -11.4966
   -11.4922 -11.4914 -11.4907 -11.4558 -11.4540 -11.4540 -11.4540 -11.4540
   -11.4526 -11.4428 -11.4428 -11.4426 -11.4166 -11.4157 -11.4151 -11.4099
   -11.4099 -11.4096 -11.4005 -11.3993 -11.3993 -11.3993 -11.3993 -11.3973
    -0.8872  -0.8872  -0.8871  -0.7828  -0.6656  -0.6656  -0.6656  -0.6355
    -0.6347  -0.6338  -0.6258  -0.6255  -0.6251  -0.6251  -0.6247  -0.6244
    -0.5199  -0.5199  -0.5193  -0.5193  -0.5187  -0.5187  -0.4827  -0.4822
    -0.4816  -0.4215  -0.4214  -0.4213  -0.1144  -0.1144  -0.1141  -0.1141
    -0.1137  -0.1137  -0.0589  -0.0586  -0.0583  -0.0381  -0.0378  -0.0376
     0.1492   0.1492   0.1492   0.1901   0.1903   0.1907   0.1907   0.1911
     0.1913   0.2865   0.2867   0.2872   0.2872   0.2876   0.2878   0.3167
     0.3167   0.3167   0.3741   0.3741   0.3742   0.4178   0.4179   0.4179
     0.4493   0.4497   0.4501   0.4693   0.4698   0.4703   0.4841   0.4846
     0.4850   0.4900   0.5022   0.5030   0.5032   0.5032   0.5034   0.5044
     0.5439   0.5439   0.5439   0.6288   0.6288   0.6507   0.6511   0.6515
     0.6602   0.6610   0.6619   0.6890   0.6895   0.6899   0.8044   0.8044
     6.3306   7.3114   7.3119   7.3123   7.9309   7.9340   7.9344   7.9349
     8.4238   8.4239   8.4239   8.4364   8.4368   8.4373   8.5677   8.5677
     8.5678   8.8887   8.8887   8.8892   8.8892   8.8898   8.8898   9.2239
     9.2239   9.2240   9.2294   9.2299   9.2305   9.3201   9.3204   9.3208
     9.3208   9.3212   9.3215   9.6885   9.6890   9.6895   9.9111   9.9113
     9.9118   9.9118   9.9123   9.9126  10.1660  10.1662  10.1665  10.2851
    10.2853  10.2857  10.2860

     the Fermi energy is     3.1893 ev

!    total energy              =   -6043.24482591 Ry
     Harris-Foulkes estimate   =   -6043.24482591 Ry
     estimated scf accuracy    <          9.8E-10 Ry

     total all-electron energy =    -39940.428584 Ry

     The total energy is the sum of the following terms:

     one-electron contribution =   -2623.51548688 Ry
     hartree contribution      =    1363.87805526 Ry
     xc contribution           =    -789.46057255 Ry
     ewald contribution        =   -2182.32845246 Ry
     one-center paw contrib.   =   -1811.81836928 Ry
     smearing contrib. (-TS)   =       0.00000000 Ry

     convergence has been achieved in   9 iterations

     Forces acting on atoms (Ry/au):

     atom    1 type  1   force =    -0.00074614    0.00000000    0.00000000
     atom    2 type  1   force =     0.00012547    0.00000000    0.00000000
     atom    3 type  1   force =    -0.00000633    0.00000000    0.00000000
     atom    4 type  1   force =     0.00000857    0.00000000    0.00000000
     atom    5 type  1   force =    -0.00000633    0.00000000    0.00000000
     atom    6 type  1   force =     0.00000857    0.00000000    0.00000000
     atom    7 type  1   force =    -0.00001087    0.00000000    0.00000000
     atom    8 type  1   force =     0.00001056    0.00000000    0.00000000
     atom    9 type  1   force =    -0.00002762   -0.00000353   -0.00000353
     atom   10 type  1   force =     0.00002060   -0.00000357   -0.00000357
     atom   11 type  1   force =    -0.00002762    0.00000353   -0.00000353
     atom   12 type  1   force =     0.00002060    0.00000357   -0.00000357
     atom   13 type  1   force =    -0.00002762   -0.00000353    0.00000353
     atom   14 type  1   force =     0.00002060   -0.00000357    0.00000357
     atom   15 type  1   force =    -0.00002762    0.00000353    0.00000353
     atom   16 type  1   force =     0.00002060    0.00000357    0.00000357
     atom   17 type  1   force =     0.00001574    0.00000000    0.00007551
     atom   18 type  1   force =     0.00002454    0.00000000   -0.00008282
     atom   19 type  1   force =    -0.00000545    0.00000000   -0.00000424
     atom   20 type  1   force =     0.00000352    0.00000000   -0.00000221
     atom   21 type  1   force =     0.00001574    0.00000000   -0.00007551
     atom   22 type  1   force =     0.00002454    0.00000000    0.00008282
     atom   23 type  1   force =    -0.00000545    0.00000000    0.00000424
     atom   24 type  1   force =     0.00000352    0.00000000    0.00000221
     atom   25 type  1   force =     0.00001574    0.00007551    0.00000000
     atom   26 type  1   force =     0.00002454   -0.00008282    0.00000000
     atom   27 type  1   force =     0.00001574   -0.00007551    0.00000000
     atom   28 type  1   force =     0.00002454    0.00008282    0.00000000
     atom   29 type  1   force =    -0.00000545   -0.00000424    0.00000000
     atom   30 type  1   force =     0.00000352   -0.00000221    0.00000000
     atom   31 type  1   force =    -0.00000545    0.00000424    0.00000000
     atom   32 type  1   force =     0.00000352    0.00000221    0.00000000
     atom   33 type  2   force =    -0.00000142   -0.00001635   -0.00001635
     atom   34 type  2   force =    -0.00000454    0.00001848    0.00001848
     atom   35 type  2   force =    -0.00000142    0.00001635   -0.00001635
     atom   36 type  2   force =    -0.00000454   -0.00001848    0.00001848
     atom   37 type  2   force =    -0.00000142   -0.00001635    0.00001635
     atom   38 type  2   force =    -0.00000454    0.00001848   -0.00001848
     atom   39 type  2   force =    -0.00000142    0.00001635    0.00001635
     atom   40 type  2   force =    -0.00000454   -0.00001848   -0.00001848
     atom   41 type  2   force =     0.00020376    0.00000000    0.00000000
     atom   42 type  2   force =     0.00018690    0.00000000    0.00000000
     atom   43 type  2   force =     0.00000297    0.00000000    0.00000000
     atom   44 type  2   force =     0.00000046    0.00000000    0.00000000
     atom   45 type  2   force =     0.00000297    0.00000000    0.00000000
     atom   46 type  2   force =     0.00000046    0.00000000    0.00000000
     atom   47 type  2   force =     0.00000193    0.00000000    0.00000000
     atom   48 type  2   force =    -0.00000181    0.00000000    0.00000000
     atom   49 type  2   force =     0.00007205    0.00000019    0.00000000
     atom   50 type  2   force =    -0.00004094    0.00000105    0.00000000
     atom   51 type  2   force =     0.00007205   -0.00000019    0.00000000
     atom   52 type  2   force =    -0.00004094   -0.00000105    0.00000000
     atom   53 type  2   force =     0.00000971    0.00000116    0.00000000
     atom   54 type  2   force =    -0.00001148    0.00000132    0.00000000
     atom   55 type  2   force =     0.00000971   -0.00000116    0.00000000
     atom   56 type  2   force =    -0.00001148   -0.00000132    0.00000000
     atom   57 type  2   force =     0.00007205    0.00000000    0.00000019
     atom   58 type  2   force =    -0.00004094    0.00000000    0.00000105
     atom   59 type  2   force =     0.00000971    0.00000000    0.00000116
     atom   60 type  2   force =    -0.00001148    0.00000000    0.00000132
     atom   61 type  2   force =     0.00007205    0.00000000   -0.00000019
     atom   62 type  2   force =    -0.00004094    0.00000000   -0.00000105
     atom   63 type  2   force =     0.00000971    0.00000000   -0.00000116
     atom   64 type  2   force =    -0.00001148    0.00000000   -0.00000132

     Total force =     0.000861     Total SCF correction =     0.000100
     SCF correction compared to forces is large: reduce conv_thr to get better values


     entering subroutine stress ...

          total   stress  (Ry/bohr**3)                   (kbar)     P=    0.37
   0.00000249   0.00000000   0.00000000          0.37      0.00      0.00
   0.00000000   0.00000248   0.00000000          0.00      0.37      0.00
   0.00000000   0.00000000   0.00000248          0.00      0.00      0.37


     Writing output data file pwscf.save
 
     init_run     :      6.55s CPU      6.64s WALL (       1 calls)
     electrons    :    221.54s CPU    222.64s WALL (       1 calls)
     forces       :      5.73s CPU      5.74s WALL (       1 calls)
     stress       :     15.28s CPU     15.30s WALL (       1 calls)

     Called by init_run:
     wfcinit      :      5.27s CPU      5.33s WALL (       1 calls)
     potinit      :      0.27s CPU      0.27s WALL (       1 calls)

     Called by electrons:
     c_bands      :    196.93s CPU    197.99s WALL (       9 calls)
     sum_band     :     16.87s CPU     16.89s WALL (       9 calls)
     v_of_rho     :      0.66s CPU      0.67s WALL (      10 calls)
     newd         :      6.16s CPU      6.17s WALL (      10 calls)
     mix_rho      :      0.18s CPU      0.18s WALL (       9 calls)

     Called by c_bands:
     init_us_2    :      0.30s CPU      0.31s WALL (      19 calls)
     cegterg      :    196.14s CPU    197.19s WALL (       9 calls)

     Called by *egterg:
     h_psi        :     66.28s CPU     66.42s WALL (      57 calls)
     s_psi        :     14.71s CPU     14.72s WALL (      57 calls)
     g_psi        :      0.35s CPU      0.35s WALL (      47 calls)
     cdiaghg      :     60.13s CPU     60.14s WALL (      56 calls)

     Called by h_psi:
     add_vuspsi   :     14.73s CPU     14.76s WALL (      57 calls)

     General routines
     calbec       :     21.15s CPU     21.17s WALL (      68 calls)
     fft          :      0.78s CPU      0.78s WALL (     154 calls)
     fftw         :     38.45s CPU     38.55s WALL (   19081 calls)
     davcio       :      0.00s CPU      0.08s WALL (       1 calls)
 
     Parallel routines
     fft_scatter  :     13.84s CPU     13.86s WALL (   19235 calls)

     PAW routines
     PAW_pot      :      1.46s CPU      1.46s WALL (      10 calls)
     PAW_symme    :      0.01s CPU      0.01s WALL (      19 calls)
 
     PWSCF        :  4m 9.58s CPU     4m10.90s WALL

 
   This run was terminated on:  21:19:38  30Oct2014            

=------------------------------------------------------------------------------=
   JOB DONE.
=------------------------------------------------------------------------------=
