
     Program PWSCF v.5.1 starts on 30Oct2014 at 21:20:27 

     This program is part of the open-source Quantum ESPRESSO suite
     for quantum simulation of materials; please cite
         "P. Giannozzi et al., J. Phys.:Condens. Matter 21 395502 (2009);
          URL http://www.quantum-espresso.org", 
     in publications or presentations arising from this work. More details at
     http://www.quantum-espresso.org/quote

     Parallel version (MPI), running on    16 processors
     R & G space division:  proc/nbgrp/npool/nimage =      16
     Reading input from NaCl.in
Warning: card  &IONS ignored
Warning: card     ION_DYNAMICS = 'BFGS' ignored
Warning: card  / ignored
Warning: card  &CELL ignored
Warning: card     CELL_DYNAMICS = 'BFGS' ignored
Warning: card     PRESS = 0.0 ignored
Warning: card  / ignored

     Current dimensions of program PWSCF are:
     Max number of different atomic species (ntypx) = 10
     Max number of k-points (npk) =  40000
     Max angular momentum in pseudopotentials (lmaxx) =  3
               file Na.pbe-spn-kjpaw_psl.0.2.UPF: wavefunction(s)  2P 3P renormalized
               file Cl.pbe-n-kjpaw_psl.0.1.UPF: wavefunction(s)  3S 3P renormalized

     Subspace diagonalization in iterative solution of the eigenvalue problem:
     scalapack distributed-memory algorithm (size of sub-group:  2*  2 procs)

 
     Parallelization info
     --------------------
     sticks:   dense  smooth     PW     G-vecs:    dense   smooth      PW
     Min         551     551    142                39017    39017    5126
     Max         552     552    143                39020    39020    5129
     Sum        8825    8825   2285               624307   624307   82057
 


     bravais-lattice index     =            0
     lattice parameter (alat)  =      21.5062  a.u.
     unit-cell volume          =    9947.0070 (a.u.)^3
     number of atoms/cell      =           64
     number of atomic types    =            2
     number of electrons       =       512.00
     number of Kohn-Sham states=          307
     kinetic-energy cutoff     =      60.0000  Ry
     charge density cutoff     =     240.0000  Ry
     convergence threshold     =      1.0E-09
     mixing beta               =       0.7000
     number of iterations used =            8  plain     mixing
     Exchange-correlation      =  SLA  PW   PBX  PBC ( 1  4  3  4 0)

     celldm(1)=  21.506223  celldm(2)=   0.000000  celldm(3)=   0.000000
     celldm(4)=   0.000000  celldm(5)=   0.000000  celldm(6)=   0.000000

     crystal axes: (cart. coord. in units of alat)
               a(1) = (   1.000000   0.000000   0.000000 )  
               a(2) = (   0.000000   1.000000   0.000000 )  
               a(3) = (   0.000000   0.000000   1.000000 )  

     reciprocal axes: (cart. coord. in units 2 pi/alat)
               b(1) = (  1.000000  0.000000  0.000000 )  
               b(2) = (  0.000000  1.000000  0.000000 )  
               b(3) = (  0.000000  0.000000  1.000000 )  


     PseudoPot. # 1 for Na read from file:
     /home/togo/espresso/pseudo/Na.pbe-spn-kjpaw_psl.0.2.UPF
     MD5 check sum: cc8f2dd74ffbe928f7b69cf99ba9b327
     Pseudo is Projector augmented-wave, Zval =  9.0
     Generated using "atomic" code by A. Dal Corso  v.5.0.2 svn rev. 9415
     Shape of augmentation charge: PSQ
     Using radial grid of 1121 points,  4 beta functions with: 
                l(1) =   0
                l(2) =   0
                l(3) =   1
                l(4) =   1
     Q(r) pseudized with 0 coefficients 


     PseudoPot. # 2 for Cl read from file:
     /home/togo/espresso/pseudo/Cl.pbe-n-kjpaw_psl.0.1.UPF
     MD5 check sum: c57bcf6588f50c5ec919311ada3dc462
     Pseudo is Projector augmented-wave + core cor, Zval =  7.0
     Generated using "atomic" code by A. Dal Corso  v.5.0.2 svn rev. 9415
     Shape of augmentation charge: PSQ
     Using radial grid of 1157 points,  4 beta functions with: 
                l(1) =   0
                l(2) =   0
                l(3) =   1
                l(4) =   1
     Q(r) pseudized with 0 coefficients 


     atomic species   valence    mass     pseudopotential
        Na             9.00    22.98977     Na( 1.00)
        Cl             7.00    35.45300     Cl( 1.00)

      8 Sym. Ops. (no inversion) found ( 6 have fractional translation)



   Cartesian axes

     site n.     atom                  positions (alat units)
         1           Na  tau(   1) = (   0.0000000   0.0000000   0.0000000  )
         2           Na  tau(   2) = (   0.5000000   0.0000000   0.0000000  )
         3           Na  tau(   3) = (   0.0000000   0.5000000   0.0000000  )
         4           Na  tau(   4) = (   0.5000000   0.5000000   0.0000000  )
         5           Na  tau(   5) = (   0.0000000   0.0000000   0.5000000  )
         6           Na  tau(   6) = (   0.5000000   0.0000000   0.5000000  )
         7           Na  tau(   7) = (   0.0000000   0.5000000   0.5000000  )
         8           Na  tau(   8) = (   0.5000000   0.5000000   0.5000000  )
         9           Na  tau(   9) = (   0.0000000   0.2500000   0.2500000  )
        10           Na  tau(  10) = (   0.5000000   0.2500000   0.2500000  )
        11           Na  tau(  11) = (   0.0000000   0.7500000   0.2500000  )
        12           Na  tau(  12) = (   0.5000000   0.7500000   0.2500000  )
        13           Na  tau(  13) = (   0.0000000   0.2500000   0.7500000  )
        14           Na  tau(  14) = (   0.5000000   0.2500000   0.7500000  )
        15           Na  tau(  15) = (   0.0000000   0.7500000   0.7500000  )
        16           Na  tau(  16) = (   0.5000000   0.7500000   0.7500000  )
        17           Na  tau(  17) = (   0.2500000   0.0000000   0.2500000  )
        18           Na  tau(  18) = (   0.7500000   0.0000000   0.2500000  )
        19           Na  tau(  19) = (   0.2500000   0.5000000   0.2500000  )
        20           Na  tau(  20) = (   0.7500000   0.5000000   0.2500000  )
        21           Na  tau(  21) = (   0.2500000   0.0000000   0.7500000  )
        22           Na  tau(  22) = (   0.7500000   0.0000000   0.7500000  )
        23           Na  tau(  23) = (   0.2500000   0.5000000   0.7500000  )
        24           Na  tau(  24) = (   0.7500000   0.5000000   0.7500000  )
        25           Na  tau(  25) = (   0.2500000   0.2500000   0.0000000  )
        26           Na  tau(  26) = (   0.7500000   0.2500000   0.0000000  )
        27           Na  tau(  27) = (   0.2500000   0.7500000   0.0000000  )
        28           Na  tau(  28) = (   0.7500000   0.7500000   0.0000000  )
        29           Na  tau(  29) = (   0.2500000   0.2500000   0.5000000  )
        30           Na  tau(  30) = (   0.7500000   0.2500000   0.5000000  )
        31           Na  tau(  31) = (   0.2500000   0.7500000   0.5000000  )
        32           Na  tau(  32) = (   0.7500000   0.7500000   0.5000000  )
        33           Cl  tau(  33) = (   0.2509300   0.2500000   0.2500000  )
        34           Cl  tau(  34) = (   0.7500000   0.2500000   0.2500000  )
        35           Cl  tau(  35) = (   0.2500000   0.7500000   0.2500000  )
        36           Cl  tau(  36) = (   0.7500000   0.7500000   0.2500000  )
        37           Cl  tau(  37) = (   0.2500000   0.2500000   0.7500000  )
        38           Cl  tau(  38) = (   0.7500000   0.2500000   0.7500000  )
        39           Cl  tau(  39) = (   0.2500000   0.7500000   0.7500000  )
        40           Cl  tau(  40) = (   0.7500000   0.7500000   0.7500000  )
        41           Cl  tau(  41) = (   0.2500000   0.0000000   0.0000000  )
        42           Cl  tau(  42) = (   0.7500000   0.0000000   0.0000000  )
        43           Cl  tau(  43) = (   0.2500000   0.5000000   0.0000000  )
        44           Cl  tau(  44) = (   0.7500000   0.5000000   0.0000000  )
        45           Cl  tau(  45) = (   0.2500000   0.0000000   0.5000000  )
        46           Cl  tau(  46) = (   0.7500000   0.0000000   0.5000000  )
        47           Cl  tau(  47) = (   0.2500000   0.5000000   0.5000000  )
        48           Cl  tau(  48) = (   0.7500000   0.5000000   0.5000000  )
        49           Cl  tau(  49) = (   0.0000000   0.2500000   0.0000000  )
        50           Cl  tau(  50) = (   0.5000000   0.2500000   0.0000000  )
        51           Cl  tau(  51) = (   0.0000000   0.7500000   0.0000000  )
        52           Cl  tau(  52) = (   0.5000000   0.7500000   0.0000000  )
        53           Cl  tau(  53) = (   0.0000000   0.2500000   0.5000000  )
        54           Cl  tau(  54) = (   0.5000000   0.2500000   0.5000000  )
        55           Cl  tau(  55) = (   0.0000000   0.7500000   0.5000000  )
        56           Cl  tau(  56) = (   0.5000000   0.7500000   0.5000000  )
        57           Cl  tau(  57) = (   0.0000000   0.0000000   0.2500000  )
        58           Cl  tau(  58) = (   0.5000000   0.0000000   0.2500000  )
        59           Cl  tau(  59) = (   0.0000000   0.5000000   0.2500000  )
        60           Cl  tau(  60) = (   0.5000000   0.5000000   0.2500000  )
        61           Cl  tau(  61) = (   0.0000000   0.0000000   0.7500000  )
        62           Cl  tau(  62) = (   0.5000000   0.0000000   0.7500000  )
        63           Cl  tau(  63) = (   0.0000000   0.5000000   0.7500000  )
        64           Cl  tau(  64) = (   0.5000000   0.5000000   0.7500000  )

     number of k points=     1  gaussian smearing, width (Ry)=  0.0100
                       cart. coord. in units 2pi/alat
        k(    1) = (   0.2500000   0.2500000   0.2500000), wk =   2.0000000

     Dense  grid:   624307 G-vectors     FFT dimensions: ( 108, 108, 108)

     Largest allocated arrays     est. size (Mb)     dimensions
        Kohn-Sham Wavefunctions        22.91 Mb     (    4891,  307)
        NL pseudopotentials            38.21 Mb     (    4891,  512)
        Each V/rho on FFT grid          1.25 Mb     (   81648)
        Each G-vector array             0.30 Mb     (   39020)
        G-vector shells                 0.02 Mb     (    2282)
     Largest temporary arrays     est. size (Mb)     dimensions
        Auxiliary wavefunctions        91.65 Mb     (    4891, 1228)
        Each subspace H/S matrix        5.75 Mb     (     614,  614)
        Each <psi_i|beta_j> matrix      2.40 Mb     (     512,  307)
        Arrays for rho mixing           9.97 Mb     (   81648,    8)

     Check: negative/imaginary core charge=   -0.000006    0.000000

     Initial potential from superposition of free atoms

     starting charge  495.97294, renormalised to  512.00000
     Starting wfc are  384 randomized atomic wfcs
     Checking if some PAW data can be deallocated... 

     total cpu time spent up to now is        7.0 secs

     per-process dynamical memory:   122.1 Mb

     Self-consistent Calculation

     iteration #  1     ecut=    60.00 Ry     beta=0.70
     Davidson diagonalization with overlap
     ethr =  1.00E-02,  avg # of iterations =  4.0

     total cpu time spent up to now is       24.6 secs

     total energy              =   -6041.31666549 Ry
     Harris-Foulkes estimate   =   -6045.74356950 Ry
     estimated scf accuracy    <       5.21399628 Ry

     iteration #  2     ecut=    60.00 Ry     beta=0.70
     Davidson diagonalization with overlap
     ethr =  1.02E-03,  avg # of iterations =  5.0

     total cpu time spent up to now is       51.3 secs

     total energy              =   -6043.05835423 Ry
     Harris-Foulkes estimate   =   -6043.60053562 Ry
     estimated scf accuracy    <       0.71489691 Ry

     iteration #  3     ecut=    60.00 Ry     beta=0.70
     Davidson diagonalization with overlap
     ethr =  1.40E-04,  avg # of iterations = 14.0

     total cpu time spent up to now is       91.7 secs

     total energy              =   -6043.23647189 Ry
     Harris-Foulkes estimate   =   -6043.25425048 Ry
     estimated scf accuracy    <       0.02093129 Ry

     iteration #  4     ecut=    60.00 Ry     beta=0.70
     Davidson diagonalization with overlap
     ethr =  4.09E-06,  avg # of iterations =  7.0

     total cpu time spent up to now is      121.4 secs

     total energy              =   -6043.24421007 Ry
     Harris-Foulkes estimate   =   -6043.24608420 Ry
     estimated scf accuracy    <       0.00363635 Ry

     iteration #  5     ecut=    60.00 Ry     beta=0.70
     Davidson diagonalization with overlap
     ethr =  7.10E-07,  avg # of iterations =  3.0

     total cpu time spent up to now is      140.5 secs

     total energy              =   -6043.24477115 Ry
     Harris-Foulkes estimate   =   -6043.24479059 Ry
     estimated scf accuracy    <       0.00007325 Ry

     iteration #  6     ecut=    60.00 Ry     beta=0.70
     Davidson diagonalization with overlap
     ethr =  1.43E-08,  avg # of iterations =  4.0

     total cpu time spent up to now is      168.5 secs

     total energy              =   -6043.24482292 Ry
     Harris-Foulkes estimate   =   -6043.24482347 Ry
     estimated scf accuracy    <       0.00000291 Ry

     iteration #  7     ecut=    60.00 Ry     beta=0.70
     Davidson diagonalization with overlap
     ethr =  5.69E-10,  avg # of iterations =  2.0

     total cpu time spent up to now is      186.7 secs

     total energy              =   -6043.24482341 Ry
     Harris-Foulkes estimate   =   -6043.24482351 Ry
     estimated scf accuracy    <       0.00000042 Ry

     iteration #  8     ecut=    60.00 Ry     beta=0.70
     Davidson diagonalization with overlap
     ethr =  8.26E-11,  avg # of iterations =  3.0

     total cpu time spent up to now is      203.8 secs

     total energy              =   -6043.24482350 Ry
     Harris-Foulkes estimate   =   -6043.24482348 Ry
     estimated scf accuracy    <       0.00000006 Ry

     iteration #  9     ecut=    60.00 Ry     beta=0.70
     Davidson diagonalization with overlap
     ethr =  1.17E-11,  avg # of iterations =  3.0

     total cpu time spent up to now is      224.5 secs

     total energy              =   -6043.24482352 Ry
     Harris-Foulkes estimate   =   -6043.24482352 Ry
     estimated scf accuracy    <          1.3E-09 Ry

     iteration # 10     ecut=    60.00 Ry     beta=0.70
     Davidson diagonalization with overlap
     ethr =  2.48E-13,  avg # of iterations =  4.0

     total cpu time spent up to now is      248.3 secs

     End of self-consistent calculation

          k = 0.2500 0.2500 0.2500 ( 78049 PWs)   bands (ev):

   -48.1268 -48.1197 -48.1196 -48.1195 -48.1195 -48.1194 -48.1194 -48.1188
   -48.1186 -48.1185 -48.1185 -48.1185 -48.1185 -48.1184 -48.1184 -48.1184
   -48.1184 -48.1184 -48.1183 -48.1183 -48.1183 -48.1183 -48.1182 -48.1182
   -48.1180 -48.1174 -48.1174 -48.1173 -48.1173 -48.1172 -48.1171 -48.1100
   -20.0542 -20.0540 -20.0536 -20.0525 -20.0503 -20.0503 -20.0500 -20.0489
   -20.0486 -20.0486 -20.0485 -20.0483 -20.0481 -20.0478 -20.0473 -20.0469
   -20.0466 -20.0465 -20.0460 -20.0459 -20.0458 -20.0456 -20.0455 -20.0453
   -20.0452 -20.0452 -20.0447 -20.0445 -20.0416 -20.0414 -20.0409 -20.0405
   -20.0405 -20.0404 -20.0401 -20.0401 -20.0397 -20.0395 -20.0392 -20.0392
   -20.0389 -20.0384 -20.0383 -20.0376 -20.0376 -20.0371 -20.0368 -20.0368
   -20.0366 -20.0365 -20.0364 -20.0364 -20.0362 -20.0361 -20.0360 -20.0359
   -20.0356 -20.0353 -20.0352 -20.0350 -20.0349 -20.0346 -20.0346 -20.0343
   -20.0341 -20.0341 -20.0338 -20.0338 -20.0336 -20.0335 -20.0335 -20.0331
   -20.0331 -20.0330 -20.0330 -20.0329 -20.0329 -20.0328 -20.0327 -20.0324
   -20.0322 -20.0322 -20.0321 -20.0318 -20.0316 -20.0316 -20.0314 -20.0313
   -20.0312 -20.0310 -20.0306 -20.0303 -20.0300 -20.0273 -20.0270 -20.0270
   -11.7137 -11.6179 -11.6177 -11.6174 -11.5450 -11.5447 -11.5445 -11.4965
   -11.4917 -11.4915 -11.4911 -11.4548 -11.4542 -11.4540 -11.4540 -11.4538
   -11.4533 -11.4428 -11.4427 -11.4425 -11.4160 -11.4157 -11.4153 -11.4100
   -11.4099 -11.4098 -11.4000 -11.3994 -11.3993 -11.3993 -11.3992 -11.3984
    -0.8872  -0.8871  -0.8871  -0.7828  -0.6656  -0.6656  -0.6655  -0.6347
    -0.6347  -0.6346  -0.6253  -0.6253  -0.6251  -0.6251  -0.6250  -0.6249
    -0.5196  -0.5195  -0.5193  -0.5193  -0.5192  -0.5191  -0.4823  -0.4822
    -0.4821  -0.4214  -0.4214  -0.4214  -0.1146  -0.1145  -0.1141  -0.1141
    -0.1136  -0.1136  -0.0589  -0.0586  -0.0582  -0.0381  -0.0378  -0.0376
     0.1489   0.1492   0.1495   0.1899   0.1904   0.1907   0.1907   0.1911
     0.1915   0.2867   0.2869   0.2872   0.2872   0.2874   0.2876   0.3167
     0.3167   0.3167   0.3740   0.3742   0.3743   0.4176   0.4179   0.4181
     0.4495   0.4497   0.4499   0.4698   0.4698   0.4698   0.4843   0.4846
     0.4848   0.4901   0.5026   0.5028   0.5032   0.5032   0.5037   0.5038
     0.5439   0.5439   0.5439   0.6288   0.6288   0.6509   0.6511   0.6513
     0.6605   0.6610   0.6616   0.6892   0.6895   0.6897   0.8044   0.8044
     6.3306   7.3109   7.3119   7.3129   7.9306   7.9337   7.9344   7.9356
     8.4238   8.4239   8.4239   8.4357   8.4368   8.4380   8.5675   8.5677
     8.5680   8.8880   8.8883   8.8892   8.8892   8.8901   8.8905   9.2234
     9.2239   9.2245   9.2292   9.2300   9.2307   9.3192   9.3206   9.3208
     9.3208   9.3210   9.3224   9.6887   9.6890   9.6894   9.9103   9.9105
     9.9119   9.9119   9.9132   9.9133  10.1655  10.1662  10.1669  10.2843
    10.2850  10.2857  10.2867

     the Fermi energy is     3.1891 ev

!    total energy              =   -6043.24482352 Ry
     Harris-Foulkes estimate   =   -6043.24482352 Ry
     estimated scf accuracy    <          1.2E-10 Ry

     total all-electron energy =    -39940.428582 Ry

     The total energy is the sum of the following terms:

     one-electron contribution =   -2623.51536283 Ry
     hartree contribution      =    1363.87807478 Ry
     xc contribution           =    -789.46059181 Ry
     ewald contribution        =   -2182.32861956 Ry
     one-center paw contrib.   =   -1811.81832411 Ry
     smearing contrib. (-TS)   =       0.00000000 Ry

     convergence has been achieved in  10 iterations

     Forces acting on atoms (Ry/au):

     atom    1 type  1   force =    -0.00000260   -0.00001629   -0.00001629
     atom    2 type  1   force =    -0.00000295    0.00001858    0.00001858
     atom    3 type  1   force =    -0.00000260    0.00001629   -0.00001629
     atom    4 type  1   force =    -0.00000295   -0.00001858    0.00001858
     atom    5 type  1   force =    -0.00000260   -0.00001629    0.00001629
     atom    6 type  1   force =    -0.00000295    0.00001858   -0.00001858
     atom    7 type  1   force =    -0.00000260    0.00001629    0.00001629
     atom    8 type  1   force =    -0.00000295   -0.00001858   -0.00001858
     atom    9 type  1   force =     0.00018757    0.00000000    0.00000000
     atom   10 type  1   force =     0.00020474    0.00000000    0.00000000
     atom   11 type  1   force =     0.00000242    0.00000000    0.00000000
     atom   12 type  1   force =     0.00000217    0.00000000    0.00000000
     atom   13 type  1   force =     0.00000242    0.00000000    0.00000000
     atom   14 type  1   force =     0.00000217    0.00000000    0.00000000
     atom   15 type  1   force =     0.00000002    0.00000000    0.00000000
     atom   16 type  1   force =     0.00000024    0.00000000    0.00000000
     atom   17 type  1   force =     0.00007128    0.00000166    0.00000000
     atom   18 type  1   force =    -0.00003894    0.00000109    0.00000000
     atom   19 type  1   force =     0.00007128   -0.00000166    0.00000000
     atom   20 type  1   force =    -0.00003894   -0.00000109    0.00000000
     atom   21 type  1   force =     0.00000895    0.00000103    0.00000000
     atom   22 type  1   force =    -0.00000935    0.00000079    0.00000000
     atom   23 type  1   force =     0.00000895   -0.00000103    0.00000000
     atom   24 type  1   force =    -0.00000935   -0.00000079    0.00000000
     atom   25 type  1   force =     0.00007128    0.00000000    0.00000166
     atom   26 type  1   force =    -0.00003894    0.00000000    0.00000109
     atom   27 type  1   force =     0.00000895    0.00000000    0.00000103
     atom   28 type  1   force =    -0.00000935    0.00000000    0.00000079
     atom   29 type  1   force =     0.00007128    0.00000000   -0.00000166
     atom   30 type  1   force =    -0.00003894    0.00000000   -0.00000109
     atom   31 type  1   force =     0.00000895    0.00000000   -0.00000103
     atom   32 type  1   force =    -0.00000935    0.00000000   -0.00000079
     atom   33 type  2   force =    -0.00097802    0.00000000    0.00000000
     atom   34 type  2   force =     0.00005106    0.00000000    0.00000000
     atom   35 type  2   force =    -0.00002140    0.00000000    0.00000000
     atom   36 type  2   force =     0.00002810    0.00000000    0.00000000
     atom   37 type  2   force =    -0.00002140    0.00000000    0.00000000
     atom   38 type  2   force =     0.00002810    0.00000000    0.00000000
     atom   39 type  2   force =    -0.00000708    0.00000000    0.00000000
     atom   40 type  2   force =     0.00000800    0.00000000    0.00000000
     atom   41 type  2   force =    -0.00003319   -0.00000036   -0.00000036
     atom   42 type  2   force =     0.00002200   -0.00000050   -0.00000050
     atom   43 type  2   force =    -0.00003319    0.00000036   -0.00000036
     atom   44 type  2   force =     0.00002200    0.00000050   -0.00000050
     atom   45 type  2   force =    -0.00003319   -0.00000036    0.00000036
     atom   46 type  2   force =     0.00002200   -0.00000050    0.00000050
     atom   47 type  2   force =    -0.00003319    0.00000036    0.00000036
     atom   48 type  2   force =     0.00002200    0.00000050    0.00000050
     atom   49 type  2   force =     0.00005649    0.00000000    0.00008397
     atom   50 type  2   force =     0.00005696    0.00000000   -0.00008577
     atom   51 type  2   force =    -0.00000047    0.00000000    0.00000755
     atom   52 type  2   force =    -0.00000047    0.00000000   -0.00000835
     atom   53 type  2   force =     0.00005649    0.00000000   -0.00008397
     atom   54 type  2   force =     0.00005696    0.00000000    0.00008577
     atom   55 type  2   force =    -0.00000047    0.00000000   -0.00000755
     atom   56 type  2   force =    -0.00000047    0.00000000    0.00000835
     atom   57 type  2   force =     0.00005649    0.00008397    0.00000000
     atom   58 type  2   force =     0.00005696   -0.00008577    0.00000000
     atom   59 type  2   force =     0.00005649   -0.00008397    0.00000000
     atom   60 type  2   force =     0.00005696    0.00008577    0.00000000
     atom   61 type  2   force =    -0.00000047    0.00000755    0.00000000
     atom   62 type  2   force =    -0.00000047   -0.00000835    0.00000000
     atom   63 type  2   force =    -0.00000047   -0.00000755    0.00000000
     atom   64 type  2   force =    -0.00000047    0.00000835    0.00000000

     Total force =     0.001078     Total SCF correction =     0.000016


     entering subroutine stress ...

          total   stress  (Ry/bohr**3)                   (kbar)     P=    0.38
   0.00000258   0.00000000   0.00000000          0.38      0.00      0.00
   0.00000000   0.00000257   0.00000000          0.00      0.38      0.00
   0.00000000   0.00000000   0.00000257          0.00      0.00      0.38


     Writing output data file pwscf.save
 
     init_run     :      6.53s CPU      6.63s WALL (       1 calls)
     electrons    :    240.21s CPU    241.34s WALL (       1 calls)
     forces       :      5.61s CPU      5.63s WALL (       1 calls)
     stress       :     15.26s CPU     15.27s WALL (       1 calls)

     Called by init_run:
     wfcinit      :      5.25s CPU      5.29s WALL (       1 calls)
     potinit      :      0.28s CPU      0.29s WALL (       1 calls)

     Called by electrons:
     c_bands      :    212.97s CPU    214.07s WALL (      10 calls)
     sum_band     :     18.64s CPU     18.66s WALL (      10 calls)
     v_of_rho     :      0.74s CPU      0.75s WALL (      11 calls)
     newd         :      6.76s CPU      6.77s WALL (      11 calls)
     mix_rho      :      0.21s CPU      0.21s WALL (      10 calls)

     Called by c_bands:
     init_us_2    :      0.33s CPU      0.35s WALL (      21 calls)
     cegterg      :    212.08s CPU    213.17s WALL (      10 calls)

     Called by *egterg:
     h_psi        :     73.05s CPU     73.18s WALL (      60 calls)
     s_psi        :     16.21s CPU     16.23s WALL (      60 calls)
     g_psi        :      0.39s CPU      0.39s WALL (      49 calls)
     cdiaghg      :     61.55s CPU     61.58s WALL (      59 calls)

     Called by h_psi:
     add_vuspsi   :     16.26s CPU     16.28s WALL (      60 calls)

     General routines
     calbec       :     23.20s CPU     23.23s WALL (      72 calls)
     fft          :      0.76s CPU      0.77s WALL (     167 calls)
     fftw         :     42.12s CPU     42.22s WALL (   21090 calls)
     davcio       :      0.00s CPU      0.05s WALL (       1 calls)
 
     Parallel routines
     fft_scatter  :     14.94s CPU     14.96s WALL (   21257 calls)

     PAW routines
     PAW_pot      :      1.60s CPU      1.60s WALL (      11 calls)
     PAW_symme    :      0.01s CPU      0.01s WALL (      21 calls)
 
     PWSCF        :  4m28.11s CPU     4m29.44s WALL

 
   This run was terminated on:  21:24:56  30Oct2014            

=------------------------------------------------------------------------------=
   JOB DONE.
=------------------------------------------------------------------------------=
