64   
1    

1    
  0.0100000000000000   0.0000000000000000   0.0000000000000000
  -0.1290729700    0.0000000000    0.0000000000
   0.0001656900    0.0000000000    0.0000000000
   0.0004500000    0.0000000000    0.0000000000
  -0.0000581200    0.0000000000    0.0000000000
   0.0004500000    0.0000000000    0.0000000000
  -0.0000581200    0.0000000000    0.0000000000
  -0.0039040800    0.0000000000    0.0000000000
   0.0001922500    0.0000000000    0.0000000000
  -0.0042696600    0.0009299500    0.0009299500
  -0.0000211100    0.0000752000    0.0000752000
  -0.0042577800    0.0009185600   -0.0009185600
  -0.0000185100    0.0000759700   -0.0000759700
  -0.0042577800   -0.0009185600    0.0009185600
  -0.0000185100   -0.0000759700    0.0000759700
  -0.0042696600   -0.0009299500   -0.0009299500
  -0.0000211100   -0.0000752000   -0.0000752000
   0.0019023900   -0.0009190800    0.0018598700
   0.0019199600   -0.0009295100   -0.0018745100
   0.0003363300   -0.0000757900   -0.0006180200
   0.0003367600   -0.0000755900    0.0006161300
   0.0019023900    0.0009190800   -0.0018598700
   0.0019199600    0.0009295100    0.0018745100
   0.0003363300    0.0000757900    0.0006180200
   0.0003367600    0.0000755900   -0.0006161300
   0.0019023900    0.0018598700   -0.0009190800
   0.0019199600   -0.0018745100   -0.0009295100
   0.0019023900   -0.0018598700    0.0009190800
   0.0019199600    0.0018745100    0.0009295100
   0.0003363300   -0.0006180200   -0.0000757900
   0.0003367600    0.0006161300   -0.0000755900
   0.0003363300    0.0006180200    0.0000757900
   0.0003367600   -0.0006161300    0.0000755900
  -0.0001650200    0.0002426700    0.0002426700
   0.0020902900    0.0002237400    0.0002237400
   0.0002096600    0.0002205500    0.0001859000
  -0.0004938100    0.0004099400    0.0003048000
   0.0002096600    0.0001859000    0.0002205500
  -0.0004938100    0.0003048000    0.0004099400
  -0.0000748500    0.0003032800    0.0003032800
   0.0316104500    0.0214982900    0.0214982900
  -0.0000748500   -0.0003032800   -0.0003032800
   0.0316104500   -0.0214982900   -0.0214982900
   0.0002096600   -0.0001859000   -0.0002205500
  -0.0004938100   -0.0003048000   -0.0004099400
   0.0002096600   -0.0002205500   -0.0001859000
  -0.0004938100   -0.0004099400   -0.0003048000
  -0.0001650200   -0.0002426700   -0.0002426700
   0.0020902900   -0.0002237400   -0.0002237400
  -0.0004890800   -0.0003007400    0.0004136300
   0.0002147800   -0.0001900500    0.0002263800
   0.0313068300   -0.0209252100    0.0209252100
  -0.0000748800   -0.0003022700    0.0003022700
   0.0020825700   -0.0002228000    0.0002228000
  -0.0001646500   -0.0002419300    0.0002419300
  -0.0004890800   -0.0004136300    0.0003007400
   0.0002147800   -0.0002263800    0.0001900500
  -0.0004890800    0.0004136300   -0.0003007400
   0.0002147800    0.0002263800   -0.0001900500
   0.0020825700    0.0002228000   -0.0002228000
  -0.0001646500    0.0002419300   -0.0002419300
   0.0313068300    0.0209252100   -0.0209252100
  -0.0000748800    0.0003022700   -0.0003022700
  -0.0004890800    0.0003007400   -0.0004136300
   0.0002147800    0.0001900500   -0.0002263800
