
.Version 7.8.2 of ABINIT
.(MPI version, prepared for a x86_64_linux_gnu4.8 computer)

.Copyright (C) 1998-2014 ABINIT group .
 ABINIT comes with ABSOLUTELY NO WARRANTY.
 It is free software, and you are welcome to redistribute it
 under certain conditions (GNU General Public License,
 see ~abinit/COPYING or http://www.gnu.org/copyleft/gpl.txt).

 ABINIT is a project of the Universite Catholique de Louvain,
 Corning Inc. and other collaborators, see ~abinit/doc/developers/contributors.txt .
 Please read ~abinit/doc/users/acknowledgments.html for suggested
 acknowledgments of the ABINIT effort.
 For more information, see http://www.abinit.org .

.Starting date : Thu 30 Oct 2014.
- ( at 09h13 )

- input  file    -> NaCl.in
- output file    -> NaCl.out
- root for input  files -> NaCli
- root for output files -> NaClo

- inpspheads : Reading pseudopotential header in XML form from Na.GGA_PBE-JTH.xml
- inpspheads : Reading pseudopotential header in XML form from Cl.GGA_PBE-JTH.xml

 Symmetries : space group P4 m m (# 99); Bravais tP (primitive tetrag.)
================================================================================
 Values of the parameters that define the memory need of the present run
   intxc =         0  ionmov =         0    iscf =        17 xclevel =         2
  lmnmax =         8   lnmax =         4   mband =       288  mffmem =         1
P  mgfft =       108   mkmem =         1 mpssoang=         2     mpw =      4301
  mqgrid =      8300   natom =        64    nfft =   1259712    nkpt =         1
  nloalg =         4  nspden =         1 nspinor =         1  nsppol =         1
    nsym =         8  n1xccc =         1  ntypat =         2  occopt =         7
Pmy_natom=         4
 PAW method is used; the additional fine FFT grid is defined by:
   mgfftf=       180    nfftf =   5832000
================================================================================
P This job should need less than                    1706.192 Mbytes of memory.
  Rough estimation (10% accuracy) of disk space for files :
_ WF disk file :     18.903 Mbytes ; DEN or POT disk file :     44.497 Mbytes.
================================================================================

--------------------------------------------------------------------------------
------------- Echo of variables that govern the present computation ------------
--------------------------------------------------------------------------------
-
- outvars: echo of selected default values
-   accesswff0 =  0 , fftalg0 =112 , wfoptalg0 = 10
-
- outvars: echo of global parameters not present in the input file
-  max_nthreads =    0
-
 -outvars: echo values of preprocessed input variables --------
        accesswff           1
            acell      1.0000000000E+00  1.0000000000E+00  1.0000000000E+00 Bohr
              amu      2.29897680E+01  3.54527000E+01
             ecut      2.75619940E+01 Hartree
-          fftalg         112
      fft_opt_lob           2
           iprcch           6
              ixc     -101130
              kpt      2.50000000E-01  2.50000000E-01  2.50000000E-01
         kptrlatt        2    0    0      0    2    0      0    0    2
          kptrlen      4.30124457E+01
P           mkmem           1
            natom          64
            nband         288
            ngfft         108     108     108
          ngfftdg         180     180     180
             nkpt           1
-          npband          16
             nsym           8
           ntypat           2
              occ      2.000000  2.000000  2.000000  2.000000  2.000000  2.000000
                       2.000000  2.000000  2.000000  2.000000  2.000000  2.000000
                       2.000000  2.000000  2.000000  2.000000  2.000000  2.000000
                       2.000000  2.000000  2.000000  2.000000  2.000000  2.000000
                       2.000000  2.000000  2.000000  2.000000  2.000000  2.000000
                       2.000000  2.000000  2.000000  2.000000  2.000000  2.000000
                       2.000000  2.000000  2.000000  2.000000  2.000000  2.000000
                       2.000000  2.000000  2.000000  2.000000  2.000000  2.000000
                       2.000000  2.000000  2.000000  2.000000  2.000000  2.000000
                       2.000000  2.000000  2.000000  2.000000  2.000000  2.000000
                       2.000000  2.000000  2.000000  2.000000  2.000000  2.000000
                       2.000000  2.000000  2.000000  2.000000  2.000000  2.000000
                       2.000000  2.000000  2.000000  2.000000  2.000000  2.000000
                       2.000000  2.000000  2.000000  2.000000  2.000000  2.000000
                       2.000000  2.000000  2.000000  2.000000  2.000000  2.000000
                       2.000000  2.000000  2.000000  2.000000  2.000000  2.000000
                       2.000000  2.000000  2.000000  2.000000  2.000000  2.000000
                       2.000000  2.000000  2.000000  2.000000  2.000000  2.000000
                       2.000000  2.000000  2.000000  2.000000  2.000000  2.000000
                       2.000000  2.000000  2.000000  2.000000  2.000000  2.000000
                       2.000000  2.000000  2.000000  2.000000  2.000000  2.000000
                       2.000000  2.000000  2.000000  2.000000  2.000000  2.000000
                       2.000000  2.000000  2.000000  2.000000  2.000000  2.000000
                       2.000000  2.000000  2.000000  2.000000  2.000000  2.000000
                       2.000000  2.000000  2.000000  2.000000  2.000000  2.000000
                       2.000000  2.000000  2.000000  2.000000  2.000000  2.000000
                       2.000000  2.000000  2.000000  2.000000  2.000000  2.000000
                       2.000000  2.000000  2.000000  2.000000  2.000000  2.000000
                       2.000000  2.000000  2.000000  2.000000  2.000000  2.000000
                       2.000000  2.000000  2.000000  2.000000  2.000000  2.000000
                       2.000000  2.000000  2.000000  2.000000  2.000000  2.000000
                       2.000000  2.000000  2.000000  2.000000  2.000000  2.000000
                       2.000000  2.000000  2.000000  2.000000  2.000000  2.000000
                       2.000000  2.000000  2.000000  2.000000  2.000000  2.000000
                       2.000000  2.000000  2.000000  2.000000  2.000000  2.000000
                       2.000000  2.000000  2.000000  2.000000  2.000000  2.000000
                       2.000000  2.000000  2.000000  2.000000  2.000000  2.000000
                       2.000000  2.000000  2.000000  2.000000  2.000000  2.000000
                       2.000000  2.000000  2.000000  2.000000  2.000000  2.000000
                       2.000000  2.000000  2.000000  2.000000  2.000000  2.000000
                       2.000000  2.000000  2.000000  2.000000  2.000000  2.000000
                       2.000000  2.000000  2.000000  2.000000  2.000000  2.000000
                       2.000000  2.000000  2.000000  2.000000  0.000000  0.000000
                       0.000000  0.000000  0.000000  0.000000  0.000000  0.000000
                       0.000000  0.000000  0.000000  0.000000  0.000000  0.000000
                       0.000000  0.000000  0.000000  0.000000  0.000000  0.000000
                       0.000000  0.000000  0.000000  0.000000  0.000000  0.000000
                       0.000000  0.000000  0.000000  0.000000  0.000000  0.000000
           occopt           7
        paral_kgb           1
        pawecutdg      7.34986508E+01 Hartree
            rprim      2.1506222854E+01  0.0000000000E+00  0.0000000000E+00
                       0.0000000000E+00  2.1506222854E+01  0.0000000000E+00
                       0.0000000000E+00  0.0000000000E+00  2.1506222854E+01
           shiftk      5.00000000E-01  5.00000000E-01  5.00000000E-01
          spgroup          99
           symrel      1  0  0   0  1  0   0  0  1       1  0  0   0 -1  0   0  0  1
                       1  0  0   0  1  0   0  0 -1       1  0  0   0 -1  0   0  0 -1
                       1  0  0   0  0  1   0  1  0       1  0  0   0  0 -1   0  1  0
                       1  0  0   0  0  1   0 -1  0       1  0  0   0  0 -1   0 -1  0
           tolvrs      1.00000000E-12
           tsmear      1.00000000E-02 Hartree
            typat      1  1  1  1  1  1  1  1  1  1  1  1  1  1  1  1  1  1  1  1
                       1  1  1  1  1  1  1  1  1  1  1  1  2  2  2  2  2  2  2  2
                       2  2  2  2  2  2  2  2  2  2  2  2  2  2  2  2  2  2  2  2
                       2  2  2  2
           useylm           1
         wfoptalg          14
           xangst      2.6458860430E-02  0.0000000000E+00  0.0000000000E+00
                       5.6903014887E+00  0.0000000000E+00  0.0000000000E+00
                       0.0000000000E+00  5.6903014887E+00  0.0000000000E+00
                       5.6903014887E+00  5.6903014887E+00  0.0000000000E+00
                       0.0000000000E+00  0.0000000000E+00  5.6903014887E+00
                       5.6903014887E+00  0.0000000000E+00  5.6903014887E+00
                       0.0000000000E+00  5.6903014887E+00  5.6903014887E+00
                       5.6903014887E+00  5.6903014887E+00  5.6903014887E+00
                       0.0000000000E+00  2.8451507444E+00  2.8451507444E+00
                       5.6903014887E+00  2.8451507444E+00  2.8451507444E+00
                       0.0000000000E+00  8.5354522331E+00  2.8451507444E+00
                       5.6903014887E+00  8.5354522331E+00  2.8451507444E+00
                       0.0000000000E+00  2.8451507444E+00  8.5354522331E+00
                       5.6903014887E+00  2.8451507444E+00  8.5354522331E+00
                       0.0000000000E+00  8.5354522331E+00  8.5354522331E+00
                       5.6903014887E+00  8.5354522331E+00  8.5354522331E+00
                       2.8451507444E+00  0.0000000000E+00  2.8451507444E+00
                       8.5354522331E+00  0.0000000000E+00  2.8451507444E+00
                       2.8451507444E+00  5.6903014887E+00  2.8451507444E+00
                       8.5354522331E+00  5.6903014887E+00  2.8451507444E+00
                       2.8451507444E+00  0.0000000000E+00  8.5354522331E+00
                       8.5354522331E+00  0.0000000000E+00  8.5354522331E+00
                       2.8451507444E+00  5.6903014887E+00  8.5354522331E+00
                       8.5354522331E+00  5.6903014887E+00  8.5354522331E+00
                       2.8451507444E+00  2.8451507444E+00  0.0000000000E+00
                       8.5354522331E+00  2.8451507444E+00  0.0000000000E+00
                       2.8451507444E+00  8.5354522331E+00  0.0000000000E+00
                       8.5354522331E+00  8.5354522331E+00  0.0000000000E+00
                       2.8451507444E+00  2.8451507444E+00  5.6903014887E+00
                       8.5354522331E+00  2.8451507444E+00  5.6903014887E+00
                       2.8451507444E+00  8.5354522331E+00  5.6903014887E+00
                       8.5354522331E+00  8.5354522331E+00  5.6903014887E+00
                       2.8451507444E+00  2.8451507444E+00  2.8451507444E+00
                       8.5354522331E+00  2.8451507444E+00  2.8451507444E+00
                       2.8451507444E+00  8.5354522331E+00  2.8451507444E+00
                       8.5354522331E+00  8.5354522331E+00  2.8451507444E+00
                       2.8451507444E+00  2.8451507444E+00  8.5354522331E+00
                       8.5354522331E+00  2.8451507444E+00  8.5354522331E+00
                       2.8451507444E+00  8.5354522331E+00  8.5354522331E+00
                       8.5354522331E+00  8.5354522331E+00  8.5354522331E+00
                       2.8451507444E+00  0.0000000000E+00  0.0000000000E+00
                       8.5354522331E+00  0.0000000000E+00  0.0000000000E+00
                       2.8451507444E+00  5.6903014887E+00  0.0000000000E+00
                       8.5354522331E+00  5.6903014887E+00  0.0000000000E+00
                       2.8451507444E+00  0.0000000000E+00  5.6903014887E+00
                       8.5354522331E+00  0.0000000000E+00  5.6903014887E+00
                       2.8451507444E+00  5.6903014887E+00  5.6903014887E+00
                       8.5354522331E+00  5.6903014887E+00  5.6903014887E+00
                       0.0000000000E+00  2.8451507444E+00  0.0000000000E+00
                       5.6903014887E+00  2.8451507444E+00  0.0000000000E+00
                       0.0000000000E+00  8.5354522331E+00  0.0000000000E+00
                       5.6903014887E+00  8.5354522331E+00  0.0000000000E+00
                       0.0000000000E+00  2.8451507444E+00  5.6903014887E+00
                       5.6903014887E+00  2.8451507444E+00  5.6903014887E+00
                       0.0000000000E+00  8.5354522331E+00  5.6903014887E+00
                       5.6903014887E+00  8.5354522331E+00  5.6903014887E+00
                       0.0000000000E+00  0.0000000000E+00  2.8451507444E+00
                       5.6903014887E+00  0.0000000000E+00  2.8451507444E+00
                       0.0000000000E+00  5.6903014887E+00  2.8451507444E+00
                       5.6903014887E+00  5.6903014887E+00  2.8451507444E+00
                       0.0000000000E+00  0.0000000000E+00  8.5354522331E+00
                       5.6903014887E+00  0.0000000000E+00  8.5354522331E+00
                       0.0000000000E+00  5.6903014887E+00  8.5354522331E+00
                       5.6903014887E+00  5.6903014887E+00  8.5354522331E+00
            xcart      5.0000000000E-02  0.0000000000E+00  0.0000000000E+00
                       1.0753111427E+01  0.0000000000E+00  0.0000000000E+00
                       0.0000000000E+00  1.0753111427E+01  0.0000000000E+00
                       1.0753111427E+01  1.0753111427E+01  0.0000000000E+00
                       0.0000000000E+00  0.0000000000E+00  1.0753111427E+01
                       1.0753111427E+01  0.0000000000E+00  1.0753111427E+01
                       0.0000000000E+00  1.0753111427E+01  1.0753111427E+01
                       1.0753111427E+01  1.0753111427E+01  1.0753111427E+01
                       0.0000000000E+00  5.3765557136E+00  5.3765557136E+00
                       1.0753111427E+01  5.3765557136E+00  5.3765557136E+00
                       0.0000000000E+00  1.6129667141E+01  5.3765557136E+00
                       1.0753111427E+01  1.6129667141E+01  5.3765557136E+00
                       0.0000000000E+00  5.3765557136E+00  1.6129667141E+01
                       1.0753111427E+01  5.3765557136E+00  1.6129667141E+01
                       0.0000000000E+00  1.6129667141E+01  1.6129667141E+01
                       1.0753111427E+01  1.6129667141E+01  1.6129667141E+01
                       5.3765557136E+00  0.0000000000E+00  5.3765557136E+00
                       1.6129667141E+01  0.0000000000E+00  5.3765557136E+00
                       5.3765557136E+00  1.0753111427E+01  5.3765557136E+00
                       1.6129667141E+01  1.0753111427E+01  5.3765557136E+00
                       5.3765557136E+00  0.0000000000E+00  1.6129667141E+01
                       1.6129667141E+01  0.0000000000E+00  1.6129667141E+01
                       5.3765557136E+00  1.0753111427E+01  1.6129667141E+01
                       1.6129667141E+01  1.0753111427E+01  1.6129667141E+01
                       5.3765557136E+00  5.3765557136E+00  0.0000000000E+00
                       1.6129667141E+01  5.3765557136E+00  0.0000000000E+00
                       5.3765557136E+00  1.6129667141E+01  0.0000000000E+00
                       1.6129667141E+01  1.6129667141E+01  0.0000000000E+00
                       5.3765557136E+00  5.3765557136E+00  1.0753111427E+01
                       1.6129667141E+01  5.3765557136E+00  1.0753111427E+01
                       5.3765557136E+00  1.6129667141E+01  1.0753111427E+01
                       1.6129667141E+01  1.6129667141E+01  1.0753111427E+01
                       5.3765557136E+00  5.3765557136E+00  5.3765557136E+00
                       1.6129667141E+01  5.3765557136E+00  5.3765557136E+00
                       5.3765557136E+00  1.6129667141E+01  5.3765557136E+00
                       1.6129667141E+01  1.6129667141E+01  5.3765557136E+00
                       5.3765557136E+00  5.3765557136E+00  1.6129667141E+01
                       1.6129667141E+01  5.3765557136E+00  1.6129667141E+01
                       5.3765557136E+00  1.6129667141E+01  1.6129667141E+01
                       1.6129667141E+01  1.6129667141E+01  1.6129667141E+01
                       5.3765557136E+00  0.0000000000E+00  0.0000000000E+00
                       1.6129667141E+01  0.0000000000E+00  0.0000000000E+00
                       5.3765557136E+00  1.0753111427E+01  0.0000000000E+00
                       1.6129667141E+01  1.0753111427E+01  0.0000000000E+00
                       5.3765557136E+00  0.0000000000E+00  1.0753111427E+01
                       1.6129667141E+01  0.0000000000E+00  1.0753111427E+01
                       5.3765557136E+00  1.0753111427E+01  1.0753111427E+01
                       1.6129667141E+01  1.0753111427E+01  1.0753111427E+01
                       0.0000000000E+00  5.3765557136E+00  0.0000000000E+00
                       1.0753111427E+01  5.3765557136E+00  0.0000000000E+00
                       0.0000000000E+00  1.6129667141E+01  0.0000000000E+00
                       1.0753111427E+01  1.6129667141E+01  0.0000000000E+00
                       0.0000000000E+00  5.3765557136E+00  1.0753111427E+01
                       1.0753111427E+01  5.3765557136E+00  1.0753111427E+01
                       0.0000000000E+00  1.6129667141E+01  1.0753111427E+01
                       1.0753111427E+01  1.6129667141E+01  1.0753111427E+01
                       0.0000000000E+00  0.0000000000E+00  5.3765557136E+00
                       1.0753111427E+01  0.0000000000E+00  5.3765557136E+00
                       0.0000000000E+00  1.0753111427E+01  5.3765557136E+00
                       1.0753111427E+01  1.0753111427E+01  5.3765557136E+00
                       0.0000000000E+00  0.0000000000E+00  1.6129667141E+01
                       1.0753111427E+01  0.0000000000E+00  1.6129667141E+01
                       0.0000000000E+00  1.0753111427E+01  1.6129667141E+01
                       1.0753111427E+01  1.0753111427E+01  1.6129667141E+01
             xred      2.3249084853E-03  0.0000000000E+00  0.0000000000E+00
                       5.0000000000E-01  0.0000000000E+00  0.0000000000E+00
                       0.0000000000E+00  5.0000000000E-01  0.0000000000E+00
                       5.0000000000E-01  5.0000000000E-01  0.0000000000E+00
                       0.0000000000E+00  0.0000000000E+00  5.0000000000E-01
                       5.0000000000E-01  0.0000000000E+00  5.0000000000E-01
                       0.0000000000E+00  5.0000000000E-01  5.0000000000E-01
                       5.0000000000E-01  5.0000000000E-01  5.0000000000E-01
                       0.0000000000E+00  2.5000000000E-01  2.5000000000E-01
                       5.0000000000E-01  2.5000000000E-01  2.5000000000E-01
                       0.0000000000E+00  7.5000000000E-01  2.5000000000E-01
                       5.0000000000E-01  7.5000000000E-01  2.5000000000E-01
                       0.0000000000E+00  2.5000000000E-01  7.5000000000E-01
                       5.0000000000E-01  2.5000000000E-01  7.5000000000E-01
                       0.0000000000E+00  7.5000000000E-01  7.5000000000E-01
                       5.0000000000E-01  7.5000000000E-01  7.5000000000E-01
                       2.5000000000E-01  0.0000000000E+00  2.5000000000E-01
                       7.5000000000E-01  0.0000000000E+00  2.5000000000E-01
                       2.5000000000E-01  5.0000000000E-01  2.5000000000E-01
                       7.5000000000E-01  5.0000000000E-01  2.5000000000E-01
                       2.5000000000E-01  0.0000000000E+00  7.5000000000E-01
                       7.5000000000E-01  0.0000000000E+00  7.5000000000E-01
                       2.5000000000E-01  5.0000000000E-01  7.5000000000E-01
                       7.5000000000E-01  5.0000000000E-01  7.5000000000E-01
                       2.5000000000E-01  2.5000000000E-01  0.0000000000E+00
                       7.5000000000E-01  2.5000000000E-01  0.0000000000E+00
                       2.5000000000E-01  7.5000000000E-01  0.0000000000E+00
                       7.5000000000E-01  7.5000000000E-01  0.0000000000E+00
                       2.5000000000E-01  2.5000000000E-01  5.0000000000E-01
                       7.5000000000E-01  2.5000000000E-01  5.0000000000E-01
                       2.5000000000E-01  7.5000000000E-01  5.0000000000E-01
                       7.5000000000E-01  7.5000000000E-01  5.0000000000E-01
                       2.5000000000E-01  2.5000000000E-01  2.5000000000E-01
                       7.5000000000E-01  2.5000000000E-01  2.5000000000E-01
                       2.5000000000E-01  7.5000000000E-01  2.5000000000E-01
                       7.5000000000E-01  7.5000000000E-01  2.5000000000E-01
                       2.5000000000E-01  2.5000000000E-01  7.5000000000E-01
                       7.5000000000E-01  2.5000000000E-01  7.5000000000E-01
                       2.5000000000E-01  7.5000000000E-01  7.5000000000E-01
                       7.5000000000E-01  7.5000000000E-01  7.5000000000E-01
                       2.5000000000E-01  0.0000000000E+00  0.0000000000E+00
                       7.5000000000E-01  0.0000000000E+00  0.0000000000E+00
                       2.5000000000E-01  5.0000000000E-01  0.0000000000E+00
                       7.5000000000E-01  5.0000000000E-01  0.0000000000E+00
                       2.5000000000E-01  0.0000000000E+00  5.0000000000E-01
                       7.5000000000E-01  0.0000000000E+00  5.0000000000E-01
                       2.5000000000E-01  5.0000000000E-01  5.0000000000E-01
                       7.5000000000E-01  5.0000000000E-01  5.0000000000E-01
                       0.0000000000E+00  2.5000000000E-01  0.0000000000E+00
                       5.0000000000E-01  2.5000000000E-01  0.0000000000E+00
                       0.0000000000E+00  7.5000000000E-01  0.0000000000E+00
                       5.0000000000E-01  7.5000000000E-01  0.0000000000E+00
                       0.0000000000E+00  2.5000000000E-01  5.0000000000E-01
                       5.0000000000E-01  2.5000000000E-01  5.0000000000E-01
                       0.0000000000E+00  7.5000000000E-01  5.0000000000E-01
                       5.0000000000E-01  7.5000000000E-01  5.0000000000E-01
                       0.0000000000E+00  0.0000000000E+00  2.5000000000E-01
                       5.0000000000E-01  0.0000000000E+00  2.5000000000E-01
                       0.0000000000E+00  5.0000000000E-01  2.5000000000E-01
                       5.0000000000E-01  5.0000000000E-01  2.5000000000E-01
                       0.0000000000E+00  0.0000000000E+00  7.5000000000E-01
                       5.0000000000E-01  0.0000000000E+00  7.5000000000E-01
                       0.0000000000E+00  5.0000000000E-01  7.5000000000E-01
                       5.0000000000E-01  5.0000000000E-01  7.5000000000E-01
            znucl       11.00000   17.00000

================================================================================

 chkinp: Checking input parameters for consistency.

================================================================================
== DATASET  1 ==================================================================
-   nproc =   16

 Real(R)+Recip(G) space primitive vectors, cartesian coordinates (Bohr,Bohr^-1):
 R(1)= 21.5062229  0.0000000  0.0000000  G(1)=  0.0464982  0.0000000  0.0000000
 R(2)=  0.0000000 21.5062229  0.0000000  G(2)=  0.0000000  0.0464982  0.0000000
 R(3)=  0.0000000  0.0000000 21.5062229  G(3)=  0.0000000  0.0000000  0.0464982
 Unit cell volume ucvol=  9.9470070E+03 bohr^3
 Angles (23,13,12)=  9.00000000E+01  9.00000000E+01  9.00000000E+01 degrees

 Coarse grid specifications (used for wave-functions):

 getcut: wavevector=  0.0000  0.0000  0.0000  ngfft= 108 108 108
         ecut(hartree)=     27.562   => boxcut(ratio)=   2.12490

 Fine grid specifications (used for densities):

 getcut: wavevector=  0.0000  0.0000  0.0000  ngfft= 180 180 180
         ecut(hartree)=     73.499   => boxcut(ratio)=   2.16872

--- Pseudopotential description ------------------------------------------------
- pspini: atom type   1  psp file is Na.GGA_PBE-JTH.xml
- pspatm: opening atomic psp file    Na.GGA_PBE-JTH.xml
- pspatm : Reading pseudopotential header in XML form from Na.GGA_PBE-JTH.xml
 Pseudopotential format is: paw10
 basis_size (lnmax)=  4 (lmn_size=  8), orbitals=   0   0   1   1
 Spheres core radius: rc_sph= 1.60198715
 1 radial meshes are used:
  - mesh 1: r(i)=AA*[exp(BB*(i-1))-1], size=2001 , AA= 0.54109E-03 BB= 0.59520E-02
 Shapefunction is SIN type: shapef(r)=[sin(pi*r/rshp)/(pi*r/rshp)]**2
 Radius for shape functions =  1.60198715
 mmax= 1349
 Radial grid used for partial waves is grid 1
 Radial grid used for projectors is grid 1
 Radial grid used for (t)core density is grid 1
 Radial grid used for Vloc is grid 1
 Radial grid used for pseudo valence density is grid 1

 pawpsp_calc: WARNING -
  Max. radius for Vloc was too large (> 20.00 a.u.) !
  Numeric noise was possible.
  Mesh size for Vloc has been set to 1768.
 Compensation charge density is not taken into account in XC energy/potential
 pspatm: atomic psp has been read  and splines computed

- pspini: atom type   2  psp file is Cl.GGA_PBE-JTH.xml
- pspatm: opening atomic psp file    Cl.GGA_PBE-JTH.xml
- pspatm : Reading pseudopotential header in XML form from Cl.GGA_PBE-JTH.xml
 Pseudopotential format is: paw10
 basis_size (lnmax)=  4 (lmn_size=  8), orbitals=   0   0   1   1
 Spheres core radius: rc_sph= 1.80315674
 1 radial meshes are used:
  - mesh 1: r(i)=AA*[exp(BB*(i-1))-1], size=1400 , AA= 0.50355E-03 BB= 0.85603E-02
 Shapefunction is SIN type: shapef(r)=[sin(pi*r/rshp)/(pi*r/rshp)]**2
 Radius for shape functions =  1.61320365
 mmax=  962
 Radial grid used for partial waves is grid 1
 Radial grid used for projectors is grid 1
 Radial grid used for (t)core density is grid 1
 Radial grid used for Vloc is grid 1
 Radial grid used for pseudo valence density is grid 1

 pawpsp_calc: WARNING -
  Max. radius for Vloc was too large (> 20.00 a.u.) !
  Numeric noise was possible.
  Mesh size for Vloc has been set to 1238.
 Compensation charge density is not taken into account in XC energy/potential
 pspatm: atomic psp has been read  and splines computed

   1.87439218E+05                                ecore*ucvol(ha*bohr**3)
--------------------------------------------------------------------------------

P newkpt: treating    288 bands with npw=    4301 for ikpt=   1 by node    0

_setup2: Arith. and geom. avg. npw (full set) are    4301.000    4301.000

================================================================================

     iter   Etot(hartree)      deltaE(h)  residm     nres2
 ETOT  1  -2027.9696665543    -2.028E+03 1.027E-03 1.021E+02
 ETOT  2  -2027.8025511978     1.671E-01 2.598E-04 1.719E+01
 ETOT  3  -2027.8064336455    -3.882E-03 6.769E-05 5.342E+00
 ETOT  4  -2027.8130475521    -6.614E-03 2.633E-05 1.274E-01
 ETOT  5  -2027.8137114359    -6.639E-04 1.571E-05 2.614E-03
 ETOT  6  -2027.8137636196    -5.218E-05 8.115E-06 4.514E-04
 ETOT  7  -2027.8137674235    -3.804E-06 8.610E-06 8.951E-05
 ETOT  8  -2027.8137711698    -3.746E-06 5.361E-06 1.576E-05
 ETOT  9  -2027.8137698647     1.305E-06 5.284E-06 7.058E-06
 ETOT 10  -2027.8137717041    -1.839E-06 2.998E-06 2.504E-06
 ETOT 11  -2027.8137716005     1.036E-07 2.387E-06 7.673E-07
 ETOT 12  -2027.8137717172    -1.167E-07 1.479E-06 6.906E-07
 ETOT 13  -2027.8137716199     9.737E-08 1.342E-06 3.610E-07
 ETOT 14  -2027.8137717152    -9.537E-08 8.982E-07 3.315E-07
 ETOT 15  -2027.8137716415     7.374E-08 8.080E-07 2.512E-07
 ETOT 16  -2027.8137717123    -7.086E-08 5.488E-07 1.740E-07
 ETOT 17  -2027.8137714928     2.196E-07 4.468E-07 5.717E-07
 ETOT 18  -2027.8137717108    -2.180E-07 2.742E-07 9.421E-08
 ETOT 19  -2027.8137717109    -1.075E-10 2.612E-07 8.209E-08
 ETOT 20  -2027.8137716539     5.703E-08 1.631E-07 5.038E-07
 ETOT 21  -2027.8137717102    -5.635E-08 1.158E-07 5.861E-08
 ETOT 22  -2027.8137716380     7.226E-08 8.725E-08 3.179E-07
 ETOT 23  -2027.8137717096    -7.159E-08 4.866E-08 4.047E-08
 ETOT 24  -2027.8137717012     8.375E-09 4.047E-08 6.764E-08
 ETOT 25  -2027.8137717092    -8.019E-09 3.286E-08 5.231E-08
 ETOT 26  -2027.8137714618     2.474E-07 1.895E-08 4.811E-07
 ETOT 27  -2027.8137717088    -2.470E-07 1.657E-08 3.292E-08
 ETOT 28  -2027.8137717096    -7.283E-10 1.254E-08 1.538E-08
 ETOT 29  -2027.8137716965     1.302E-08 9.951E-09 5.669E-08
 ETOT 30  -2027.8137717096    -1.303E-08 5.895E-09 1.450E-08

 Cartesian components of stress tensor (hartree/bohr^3)
  sigma(1 1)=  2.65437743E-06  sigma(3 2)=  0.00000000E+00
  sigma(2 2)=  2.67343275E-06  sigma(3 1)=  0.00000000E+00
  sigma(3 3)=  2.67343275E-06  sigma(2 1)=  0.00000000E+00


 scprqt:  WARNING -
  nstep=   30 was not enough SCF cycles to converge;
  density residual=  1.450E-08 exceeds tolvrs=  1.000E-12


 PAW TEST:
 ==== Compensation charge inside spheres ============
 The following values must be close to each other ...
 Compensation charge over spherical meshes =     98.360895018358860
 Compensation charge over fine fft grid    =     98.360872779544493

 ==== Results concerning PAW augmentation regions ====

 Total pseudopotential strength Dij (hartree):
 Atom #  1
  -0.66271   0.07435   0.00000   0.00000   0.00006   0.00000   0.00000  -0.00001
   0.07435   0.00222   0.00000   0.00000  -0.00001   0.00000   0.00000   0.00000
   0.00000   0.00000  -0.90408   0.00000   0.00000   0.05571   0.00000   0.00000
   0.00000   0.00000   0.00000  -0.90408   0.00000   0.00000   0.05571   0.00000
   0.00006  -0.00001   0.00000   0.00000  -0.90408   0.00000   0.00000   0.05571
   0.00000   0.00000   0.05571   0.00000   0.00000  -0.00052   0.00000   0.00000
   0.00000   0.00000   0.00000   0.05571   0.00000   0.00000  -0.00052   0.00000
  -0.00001   0.00000   0.00000   0.00000   0.05571   0.00000   0.00000  -0.00052
 Atom # 64
   2.53556   0.10026   0.00000   0.00000   0.00000   0.00000  -0.00000   0.00000
   0.10026  11.96174   0.00000  -0.00000   0.00000   0.00000  -0.00000   0.00000
   0.00000   0.00000   0.50111   0.00000   0.00000   0.01328   0.00000   0.00000
   0.00000  -0.00000   0.00000   0.50111   0.00000   0.00000   0.01328  -0.00000
   0.00000   0.00000   0.00000   0.00000   0.50111   0.00000  -0.00000   0.01328
   0.00000   0.00000   0.01328   0.00000   0.00000 -29.41030   0.00000   0.00000
  -0.00000  -0.00000   0.00000   0.01328  -0.00000   0.00000 -29.41030  -0.00000
   0.00000   0.00000   0.00000  -0.00000   0.01328   0.00000  -0.00000 -29.41030


 Augmentation waves occupancies Rhoij:
 Atom #  1
   2.00025  -0.00474   0.00000   0.00000  -0.00001   0.00000   0.00000  -0.00005
  -0.00474   0.32460   0.00000   0.00000  -0.00024   0.00000   0.00000   0.01272
   0.00000   0.00000   2.00118   0.00000   0.00000  -0.00395   0.00000   0.00000
   0.00000   0.00000   0.00000   2.00118   0.00000   0.00000  -0.00395   0.00000
  -0.00001  -0.00024   0.00000   0.00000   2.00118   0.00000   0.00000  -0.00398
   0.00000   0.00000  -0.00395   0.00000   0.00000   0.50641   0.00000   0.00000
   0.00000   0.00000   0.00000  -0.00395   0.00000   0.00000   0.50641   0.00000
  -0.00005   0.01272   0.00000   0.00000  -0.00398   0.00000   0.00000   0.50797
 Atom # 64
   1.91011   0.00260   0.00000  -0.00000   0.00003   0.00000   0.00000  -0.00000
   0.00260   0.00001   0.00000   0.00000  -0.00000   0.00000   0.00000  -0.00000
   0.00000   0.00000   1.73229   0.00000   0.00000   0.00195   0.00000   0.00000
  -0.00000   0.00000   0.00000   1.73229  -0.00000   0.00000   0.00195   0.00000
   0.00003  -0.00000   0.00000  -0.00000   1.73229   0.00000   0.00000   0.00195
   0.00000   0.00000   0.00195   0.00000   0.00000   0.00000   0.00000   0.00000
   0.00000   0.00000   0.00000   0.00195   0.00000   0.00000   0.00000   0.00000
  -0.00000  -0.00000   0.00000   0.00000   0.00195   0.00000   0.00000   0.00000


================================================================================

 ----iterations are completed or convergence reached----

 Mean square residual over all n,k,spin=   6.7788E-11; max=  5.8949E-09
   0.2500  0.2500  0.2500    1  5.89491E-09 kpt; spin; max resid(k); each band:
  5.16E-18 9.10E-18 1.66E-17 5.63E-17 1.32E-15 1.10E-16 3.05E-16 1.25E-15
  1.27E-14 1.12E-14 7.22E-15 7.82E-15 1.61E-14 2.02E-14 3.39E-15 2.00E-14
  4.43E-16 8.01E-16 2.55E-16 6.68E-16 7.26E-16 1.53E-15 4.53E-16 1.15E-15
  3.83E-16 1.32E-16 1.21E-16 4.39E-17 1.42E-18 2.21E-19 3.05E-19 2.82E-19
  2.19E-14 4.73E-14 3.02E-14 2.69E-14 6.96E-14 5.19E-14 6.25E-14 6.06E-14
  6.03E-14 7.46E-14 3.78E-14 2.03E-14 3.09E-14 4.86E-14 4.41E-14 7.52E-14
  2.84E-14 2.15E-14 4.90E-14 3.29E-14 2.82E-14 3.07E-14 2.69E-14 3.18E-14
  1.77E-14 2.06E-14 2.26E-14 2.57E-14 7.94E-14 7.80E-14 7.20E-14 7.20E-14
  2.78E-14 1.49E-14 3.26E-14 3.00E-14 2.08E-14 4.51E-14 2.22E-14 3.80E-14
  2.84E-14 3.12E-14 7.53E-14 8.14E-15 4.33E-14 4.31E-14 4.69E-14 1.34E-14
  3.42E-14 4.87E-15 7.33E-15 1.52E-14 1.53E-14 1.43E-14 2.32E-14 7.44E-15
  1.69E-14 3.02E-14 8.12E-15 2.97E-14 2.19E-14 3.88E-14 1.45E-14 1.37E-14
  1.42E-14 2.90E-14 1.91E-14 1.03E-14 7.63E-15 1.01E-14 9.26E-15 1.50E-14
  1.16E-14 8.63E-15 8.31E-15 7.31E-15 4.10E-15 9.94E-15 1.73E-14 4.57E-15
  1.44E-15 1.06E-15 8.05E-16 1.53E-15 2.67E-15 1.05E-15 8.82E-16 8.17E-16
  9.84E-16 8.97E-16 1.53E-15 5.14E-16 3.42E-16 7.40E-16 6.39E-16 6.17E-16
  3.78E-16 1.39E-15 1.03E-15 1.27E-15 2.24E-15 1.90E-15 2.38E-15 1.99E-15
  2.11E-15 2.19E-15 2.01E-15 3.27E-15 3.77E-15 2.48E-15 3.28E-15 2.53E-15
  1.70E-15 2.33E-15 2.06E-15 4.01E-15 2.63E-15 2.35E-15 2.04E-15 1.16E-15
  9.17E-16 1.25E-15 1.20E-15 1.51E-15 1.52E-15 1.16E-15 1.40E-15 1.14E-15
  2.14E-15 1.94E-15 1.84E-15 1.19E-15 6.07E-15 8.33E-15 5.85E-15 5.15E-15
  3.31E-15 2.82E-15 2.63E-15 2.35E-15 2.29E-15 2.94E-15 1.84E-15 2.66E-15
  5.26E-15 1.05E-14 5.54E-15 5.90E-15 4.89E-15 9.47E-15 2.25E-15 2.49E-15
  2.50E-15 1.09E-15 1.76E-15 1.68E-15 4.88E-15 6.53E-15 3.95E-15 3.00E-15
  4.61E-15 4.67E-15 2.40E-15 5.27E-15 4.75E-15 1.54E-15 7.81E-16 1.27E-15
  4.11E-15 3.33E-15 3.65E-15 2.14E-15 3.44E-15 3.59E-15 2.43E-15 5.13E-15
  2.48E-15 1.46E-15 2.43E-15 1.76E-15 2.32E-15 1.79E-15 1.49E-15 3.04E-15
  3.55E-15 1.88E-15 2.02E-15 3.67E-15 2.40E-15 2.66E-15 1.76E-15 1.53E-15
  2.05E-15 1.71E-15 1.72E-15 1.75E-15 1.19E-15 1.82E-15 1.45E-15 7.92E-16
  1.08E-15 1.24E-15 1.44E-15 1.25E-15 1.84E-15 1.41E-15 1.18E-15 1.50E-15
  4.21E-16 3.04E-16 8.55E-16 1.27E-15 3.14E-16 6.74E-16 1.42E-15 7.05E-16
  1.21E-15 7.90E-16 9.93E-16 7.62E-16 1.24E-15 8.08E-16 6.41E-16 1.22E-15
  1.15E-15 6.81E-16 1.57E-15 2.07E-15 1.15E-15 1.38E-15 2.39E-15 1.64E-15
  1.89E-15 1.28E-15 1.68E-15 1.97E-15 1.80E-15 1.91E-15 7.23E-16 1.50E-15
  6.07E-16 3.00E-15 3.91E-15 4.57E-15 5.10E-15 3.15E-15 2.86E-15 1.02E-09
  5.89E-09 2.68E-09 1.90E-09 7.43E-11 9.45E-10 1.06E-09 5.38E-09 5.68E-10
 reduced coordinates (array xred) for   64 atoms
       0.002324908485      0.000000000000      0.000000000000
       0.500000000000      0.000000000000      0.000000000000
       0.000000000000      0.500000000000      0.000000000000
       0.500000000000      0.500000000000      0.000000000000
       0.000000000000      0.000000000000      0.500000000000
       0.500000000000      0.000000000000      0.500000000000
       0.000000000000      0.500000000000      0.500000000000
       0.500000000000      0.500000000000      0.500000000000
       0.000000000000      0.250000000000      0.250000000000
       0.500000000000      0.250000000000      0.250000000000
       0.000000000000      0.750000000000      0.250000000000
       0.500000000000      0.750000000000      0.250000000000
       0.000000000000      0.250000000000      0.750000000000
       0.500000000000      0.250000000000      0.750000000000
       0.000000000000      0.750000000000      0.750000000000
       0.500000000000      0.750000000000      0.750000000000
       0.250000000000      0.000000000000      0.250000000000
       0.750000000000      0.000000000000      0.250000000000
       0.250000000000      0.500000000000      0.250000000000
       0.750000000000      0.500000000000      0.250000000000
       0.250000000000      0.000000000000      0.750000000000
       0.750000000000      0.000000000000      0.750000000000
       0.250000000000      0.500000000000      0.750000000000
       0.750000000000      0.500000000000      0.750000000000
       0.250000000000      0.250000000000      0.000000000000
       0.750000000000      0.250000000000      0.000000000000
       0.250000000000      0.750000000000      0.000000000000
       0.750000000000      0.750000000000      0.000000000000
       0.250000000000      0.250000000000      0.500000000000
       0.750000000000      0.250000000000      0.500000000000
       0.250000000000      0.750000000000      0.500000000000
       0.750000000000      0.750000000000      0.500000000000
       0.250000000000      0.250000000000      0.250000000000
       0.750000000000      0.250000000000      0.250000000000
       0.250000000000      0.750000000000      0.250000000000
       0.750000000000      0.750000000000      0.250000000000
       0.250000000000      0.250000000000      0.750000000000
       0.750000000000      0.250000000000      0.750000000000
       0.250000000000      0.750000000000      0.750000000000
       0.750000000000      0.750000000000      0.750000000000
       0.250000000000      0.000000000000      0.000000000000
       0.750000000000      0.000000000000      0.000000000000
       0.250000000000      0.500000000000      0.000000000000
       0.750000000000      0.500000000000      0.000000000000
       0.250000000000      0.000000000000      0.500000000000
       0.750000000000      0.000000000000      0.500000000000
       0.250000000000      0.500000000000      0.500000000000
       0.750000000000      0.500000000000      0.500000000000
       0.000000000000      0.250000000000      0.000000000000
       0.500000000000      0.250000000000      0.000000000000
       0.000000000000      0.750000000000      0.000000000000
       0.500000000000      0.750000000000      0.000000000000
       0.000000000000      0.250000000000      0.500000000000
       0.500000000000      0.250000000000      0.500000000000
       0.000000000000      0.750000000000      0.500000000000
       0.500000000000      0.750000000000      0.500000000000
       0.000000000000      0.000000000000      0.250000000000
       0.500000000000      0.000000000000      0.250000000000
       0.000000000000      0.500000000000      0.250000000000
       0.500000000000      0.500000000000      0.250000000000
       0.000000000000      0.000000000000      0.750000000000
       0.500000000000      0.000000000000      0.750000000000
       0.000000000000      0.500000000000      0.750000000000
       0.500000000000      0.500000000000      0.750000000000
 rms dE/dt=  1.6692E-03; max dE/dt=  2.0145E-02; dE/dt below (all hartree)
    1       0.020145198419      0.000000000000      0.000000000000
    2      -0.003321147471      0.000000000000      0.000000000000
    3       0.000039770831      0.000000000000      0.000000000000
    4      -0.000136450104      0.000000000000      0.000000000000
    5       0.000039770831      0.000000000000      0.000000000000
    6      -0.000136450104      0.000000000000      0.000000000000
    7       0.000169631194      0.000000000000      0.000000000000
    8      -0.000168508868      0.000000000000      0.000000000000
    9       0.000629498932      0.000006008356      0.000006008356
   10      -0.000449826955     -0.000001407526     -0.000001407526
   11       0.000629498932     -0.000006008356      0.000006008356
   12      -0.000449826955      0.000001407526     -0.000001407526
   13       0.000629498932      0.000006008356     -0.000006008356
   14      -0.000449826955     -0.000001407526      0.000001407526
   15       0.000629498932     -0.000006008356     -0.000006008356
   16      -0.000449826955      0.000001407526      0.000001407526
   17      -0.000550652521     -0.000000000000     -0.002170409599
   18      -0.000548637732      0.000000000000      0.002121926971
   19       0.000007573448     -0.000000000000      0.000023113017
   20       0.000004678916      0.000000000000     -0.000021289393
   21      -0.000550652521      0.000000000000      0.002170409599
   22      -0.000548637732      0.000000000000     -0.002121926971
   23       0.000007573448     -0.000000000000     -0.000023113017
   24       0.000004678916      0.000000000000      0.000021289393
   25      -0.000550652521     -0.002170409599     -0.000000000000
   26      -0.000548637732      0.002121926971      0.000000000000
   27      -0.000550652521      0.002170409599      0.000000000000
   28      -0.000548637732     -0.002121926971      0.000000000000
   29       0.000007573448      0.000023113017     -0.000000000000
   30       0.000004678916     -0.000021289393      0.000000000000
   31       0.000007573448     -0.000023113017     -0.000000000000
   32       0.000004678916      0.000021289393      0.000000000000
   33       0.000074164864      0.000480346233      0.000480346233
   34       0.000080103871     -0.000472712982     -0.000472712982
   35       0.000074164864     -0.000480346233      0.000480346233
   36       0.000080103871      0.000472712982     -0.000472712982
   37       0.000074164864      0.000480346233     -0.000480346233
   38       0.000080103871     -0.000472712982      0.000472712982
   39       0.000074164864     -0.000480346233     -0.000480346233
   40       0.000080103871      0.000472712982      0.000472712982
   41      -0.005671453560      0.000000000000      0.000000000000
   42      -0.004542675862      0.000000000000      0.000000000000
   43      -0.000060242880      0.000000000000      0.000000000000
   44      -0.000052757427      0.000000000000      0.000000000000
   45      -0.000060242880      0.000000000000      0.000000000000
   46      -0.000052757427      0.000000000000      0.000000000000
   47      -0.000001838318      0.000000000000      0.000000000000
   48       0.000001993920      0.000000000000      0.000000000000
   49      -0.001927337740      0.000033553784     -0.000000000000
   50       0.001060003135      0.000004636256      0.000000000000
   51      -0.001927337740     -0.000033553784     -0.000000000000
   52       0.001060003135     -0.000004636256      0.000000000000
   53      -0.000231697354     -0.000002673881      0.000000000000
   54       0.000251004081      0.000000404247      0.000000000000
   55      -0.000231697354      0.000002673881      0.000000000000
   56       0.000251004081     -0.000000404247      0.000000000000
   57      -0.001927337740     -0.000000000000      0.000033553784
   58       0.001060003135      0.000000000000      0.000004636256
   59      -0.000231697354      0.000000000000     -0.000002673881
   60       0.000251004081      0.000000000000      0.000000404247
   61      -0.001927337740     -0.000000000000     -0.000033553784
   62       0.001060003135      0.000000000000     -0.000004636256
   63      -0.000231697354      0.000000000000      0.000002673881
   64       0.000251004081      0.000000000000     -0.000000404247

 cartesian coordinates (angstrom) at end:
    1      0.02645886042950     0.00000000000000     0.00000000000000
    2      5.69030148871436     0.00000000000000     0.00000000000000
    3      0.00000000000000     5.69030148871436     0.00000000000000
    4      5.69030148871436     5.69030148871436     0.00000000000000
    5      0.00000000000000     0.00000000000000     5.69030148871436
    6      5.69030148871436     0.00000000000000     5.69030148871436
    7      0.00000000000000     5.69030148871436     5.69030148871436
    8      5.69030148871436     5.69030148871436     5.69030148871436
    9      0.00000000000000     2.84515074435718     2.84515074435718
   10      5.69030148871436     2.84515074435718     2.84515074435718
   11      0.00000000000000     8.53545223307154     2.84515074435718
   12      5.69030148871436     8.53545223307154     2.84515074435718
   13      0.00000000000000     2.84515074435718     8.53545223307154
   14      5.69030148871436     2.84515074435718     8.53545223307154
   15      0.00000000000000     8.53545223307154     8.53545223307154
   16      5.69030148871436     8.53545223307154     8.53545223307154
   17      2.84515074435718     0.00000000000000     2.84515074435718
   18      8.53545223307154     0.00000000000000     2.84515074435718
   19      2.84515074435718     5.69030148871436     2.84515074435718
   20      8.53545223307154     5.69030148871436     2.84515074435718
   21      2.84515074435718     0.00000000000000     8.53545223307154
   22      8.53545223307154     0.00000000000000     8.53545223307154
   23      2.84515074435718     5.69030148871436     8.53545223307154
   24      8.53545223307154     5.69030148871436     8.53545223307154
   25      2.84515074435718     2.84515074435718     0.00000000000000
   26      8.53545223307154     2.84515074435718     0.00000000000000
   27      2.84515074435718     8.53545223307154     0.00000000000000
   28      8.53545223307154     8.53545223307154     0.00000000000000
   29      2.84515074435718     2.84515074435718     5.69030148871436
   30      8.53545223307154     2.84515074435718     5.69030148871436
   31      2.84515074435718     8.53545223307154     5.69030148871436
   32      8.53545223307154     8.53545223307154     5.69030148871436
   33      2.84515074435718     2.84515074435718     2.84515074435718
   34      8.53545223307154     2.84515074435718     2.84515074435718
   35      2.84515074435718     8.53545223307154     2.84515074435718
   36      8.53545223307154     8.53545223307154     2.84515074435718
   37      2.84515074435718     2.84515074435718     8.53545223307154
   38      8.53545223307154     2.84515074435718     8.53545223307154
   39      2.84515074435718     8.53545223307154     8.53545223307154
   40      8.53545223307154     8.53545223307154     8.53545223307154
   41      2.84515074435718     0.00000000000000     0.00000000000000
   42      8.53545223307154     0.00000000000000     0.00000000000000
   43      2.84515074435718     5.69030148871436     0.00000000000000
   44      8.53545223307154     5.69030148871436     0.00000000000000
   45      2.84515074435718     0.00000000000000     5.69030148871436
   46      8.53545223307154     0.00000000000000     5.69030148871436
   47      2.84515074435718     5.69030148871436     5.69030148871436
   48      8.53545223307154     5.69030148871436     5.69030148871436
   49      0.00000000000000     2.84515074435718     0.00000000000000
   50      5.69030148871436     2.84515074435718     0.00000000000000
   51      0.00000000000000     8.53545223307154     0.00000000000000
   52      5.69030148871436     8.53545223307154     0.00000000000000
   53      0.00000000000000     2.84515074435718     5.69030148871436
   54      5.69030148871436     2.84515074435718     5.69030148871436
   55      0.00000000000000     8.53545223307154     5.69030148871436
   56      5.69030148871436     8.53545223307154     5.69030148871436
   57      0.00000000000000     0.00000000000000     2.84515074435718
   58      5.69030148871436     0.00000000000000     2.84515074435718
   59      0.00000000000000     5.69030148871436     2.84515074435718
   60      5.69030148871436     5.69030148871436     2.84515074435718
   61      0.00000000000000     0.00000000000000     8.53545223307154
   62      5.69030148871436     0.00000000000000     8.53545223307154
   63      0.00000000000000     5.69030148871436     8.53545223307154
   64      5.69030148871436     5.69030148871436     8.53545223307154

 cartesian forces (hartree/bohr) at end:
    1     -0.00093686935947    -0.00000000000000    -0.00000000000000
    2      0.00015427277409    -0.00000000000000    -0.00000000000000
    3     -0.00000200377550    -0.00000000000000    -0.00000000000000
    4      0.00000619017547    -0.00000000000000    -0.00000000000000
    5     -0.00000200377550    -0.00000000000000    -0.00000000000000
    6      0.00000619017547    -0.00000000000000    -0.00000000000000
    7     -0.00000804204471    -0.00000000000000    -0.00000000000000
    8      0.00000768084928    -0.00000000000000    -0.00000000000000
    9     -0.00002942505281    -0.00000027937756    -0.00000027937756
   10      0.00002076162542     0.00000006544739     0.00000006544739
   11     -0.00002942505281     0.00000027937756    -0.00000027937756
   12      0.00002076162542    -0.00000006544739     0.00000006544739
   13     -0.00002942505281    -0.00000027937756     0.00000027937756
   14      0.00002076162542     0.00000006544739    -0.00000006544739
   15     -0.00002942505281     0.00000027937756     0.00000027937756
   16      0.00002076162542    -0.00000006544739    -0.00000006544739
   17      0.00002544982973    -0.00000000000000     0.00010092007386
   18      0.00002535614572    -0.00000000000000    -0.00009866572039
   19     -0.00000050665613    -0.00000000000000    -0.00000107471298
   20     -0.00000037206569    -0.00000000000000     0.00000098991779
   21      0.00002544982973    -0.00000000000000    -0.00010092007386
   22      0.00002535614572    -0.00000000000000     0.00009866572039
   23     -0.00000050665613    -0.00000000000000     0.00000107471298
   24     -0.00000037206569    -0.00000000000000    -0.00000098991779
   25      0.00002544982973     0.00010092007386    -0.00000000000000
   26      0.00002535614572    -0.00009866572039    -0.00000000000000
   27      0.00002544982973    -0.00010092007386    -0.00000000000000
   28      0.00002535614572     0.00009866572039    -0.00000000000000
   29     -0.00000050665613    -0.00000107471298    -0.00000000000000
   30     -0.00000037206569     0.00000098991779    -0.00000000000000
   31     -0.00000050665613     0.00000107471298    -0.00000000000000
   32     -0.00000037206569    -0.00000098991779    -0.00000000000000
   33     -0.00000360303508    -0.00002233522065    -0.00002233522065
   34     -0.00000387918803     0.00002198028846     0.00002198028846
   35     -0.00000360303508     0.00002233522065    -0.00002233522065
   36     -0.00000387918803    -0.00002198028846     0.00002198028846
   37     -0.00000360303508    -0.00002233522065     0.00002233522065
   38     -0.00000387918803     0.00002198028846    -0.00002198028846
   39     -0.00000360303508     0.00002233522065     0.00002233522065
   40     -0.00000387918803    -0.00002198028846    -0.00002198028846
   41      0.00026355770546    -0.00000000000000    -0.00000000000000
   42      0.00021107160850    -0.00000000000000    -0.00000000000000
   43      0.00000264667903    -0.00000000000000    -0.00000000000000
   44      0.00000229861913    -0.00000000000000    -0.00000000000000
   45      0.00000264667903    -0.00000000000000    -0.00000000000000
   46      0.00000229861913    -0.00000000000000    -0.00000000000000
   47     -0.00000006902624    -0.00000000000000    -0.00000000000000
   48     -0.00000024721825    -0.00000000000000    -0.00000000000000
   49      0.00008946317266    -0.00000156018955    -0.00000000000000
   50     -0.00004944271030    -0.00000021557740    -0.00000000000000
   51      0.00008946317266     0.00000156018955    -0.00000000000000
   52     -0.00004944271030     0.00000021557740    -0.00000000000000
   53      0.00001061899826     0.00000012433057    -0.00000000000000
   54     -0.00001182573498    -0.00000001879673    -0.00000000000000
   55      0.00001061899826    -0.00000012433057    -0.00000000000000
   56     -0.00001182573498     0.00000001879673    -0.00000000000000
   57      0.00008946317266    -0.00000000000000    -0.00000156018955
   58     -0.00004944271030    -0.00000000000000    -0.00000021557740
   59      0.00001061899826    -0.00000000000000     0.00000012433057
   60     -0.00001182573498    -0.00000000000000    -0.00000001879673
   61      0.00008946317266    -0.00000000000000     0.00000156018955
   62     -0.00004944271030    -0.00000000000000     0.00000021557740
   63      0.00001061899826    -0.00000000000000    -0.00000012433057
   64     -0.00001182573498    -0.00000000000000     0.00000001879673
 frms,max,avg= 7.7613914E-05 9.3686936E-04   1.545E-07  0.000E+00  0.000E+00 h/b

 cartesian forces (eV/Angstrom) at end:
    1     -0.04817575540567    -0.00000000000000    -0.00000000000000
    2      0.00793302433827    -0.00000000000000    -0.00000000000000
    3     -0.00010303827032    -0.00000000000000    -0.00000000000000
    4      0.00031831159394    -0.00000000000000    -0.00000000000000
    5     -0.00010303827032    -0.00000000000000    -0.00000000000000
    6      0.00031831159394    -0.00000000000000    -0.00000000000000
    7     -0.00041353853139    -0.00000000000000    -0.00000000000000
    8      0.00039496511694    -0.00000000000000    -0.00000000000000
    9     -0.00151309692523    -0.00001436617041    -0.00001436617041
   10      0.00106760561448     0.00000336543984     0.00000336543984
   11     -0.00151309692523     0.00001436617041    -0.00001436617041
   12      0.00106760561448    -0.00000336543984     0.00000336543984
   13     -0.00151309692523    -0.00001436617041     0.00001436617041
   14      0.00106760561448     0.00000336543984    -0.00000336543984
   15     -0.00151309692523     0.00001436617041     0.00001436617041
   16      0.00106760561448    -0.00000336543984    -0.00000336543984
   17      0.00130868275242    -0.00000000000000     0.00518951841540
   18      0.00130386532766    -0.00000000000000    -0.00507359490866
   19     -0.00002605330344    -0.00000000000000    -0.00005526395857
   20     -0.00001913238520    -0.00000000000000     0.00005090361496
   21      0.00130868275242    -0.00000000000000    -0.00518951841540
   22      0.00130386532766    -0.00000000000000     0.00507359490866
   23     -0.00002605330344    -0.00000000000000     0.00005526395857
   24     -0.00001913238520    -0.00000000000000    -0.00005090361496
   25      0.00130868275242     0.00518951841540    -0.00000000000000
   26      0.00130386532766    -0.00507359490866    -0.00000000000000
   27      0.00130868275242    -0.00518951841540    -0.00000000000000
   28      0.00130386532766     0.00507359490866    -0.00000000000000
   29     -0.00002605330344    -0.00005526395857    -0.00000000000000
   30     -0.00001913238520     0.00005090361496    -0.00000000000000
   31     -0.00002605330344     0.00005526395857    -0.00000000000000
   32     -0.00001913238520    -0.00005090361496    -0.00000000000000
   33     -0.00018527549737    -0.00114852312790    -0.00114852312790
   34     -0.00019947585187     0.00113027178196     0.00113027178196
   35     -0.00018527549737     0.00114852312790    -0.00114852312790
   36     -0.00019947585187    -0.00113027178196     0.00113027178196
   37     -0.00018527549737    -0.00114852312790     0.00114852312790
   38     -0.00019947585187     0.00113027178196    -0.00113027178196
   39     -0.00018527549737     0.00114852312790     0.00114852312790
   40     -0.00019947585187    -0.00113027178196    -0.00113027178196
   41      0.01355268098496    -0.00000000000000    -0.00000000000000
   42      0.01085373759012    -0.00000000000000    -0.00000000000000
   43      0.00013609769630    -0.00000000000000    -0.00000000000000
   44      0.00011819973795    -0.00000000000000    -0.00000000000000
   45      0.00013609769630    -0.00000000000000    -0.00000000000000
   46      0.00011819973795    -0.00000000000000    -0.00000000000000
   47     -0.00000354947157    -0.00000000000000    -0.00000000000000
   48     -0.00001271247266    -0.00000000000000    -0.00000000000000
   49      0.00460038091792    -0.00008022816558    -0.00000000000000
   50     -0.00254244617348    -0.00001108543481    -0.00000000000000
   51      0.00460038091792     0.00008022816558    -0.00000000000000
   52     -0.00254244617348     0.00001108543481    -0.00000000000000
   53      0.00054605079944     0.00000639333458    -0.00000000000000
   54     -0.00060810369152    -0.00000096656648    -0.00000000000000
   55      0.00054605079944    -0.00000639333458    -0.00000000000000
   56     -0.00060810369152     0.00000096656648    -0.00000000000000
   57      0.00460038091792    -0.00000000000000    -0.00008022816558
   58     -0.00254244617348    -0.00000000000000    -0.00001108543481
   59      0.00054605079944    -0.00000000000000     0.00000639333458
   60     -0.00060810369152    -0.00000000000000    -0.00000096656648
   61      0.00460038091792    -0.00000000000000     0.00008022816558
   62     -0.00254244617348    -0.00000000000000     0.00001108543481
   63      0.00054605079944    -0.00000000000000    -0.00000639333458
   64     -0.00060810369152    -0.00000000000000     0.00000096656648
 frms,max,avg= 3.9910676E-03 4.8175755E-02   7.945E-06  0.000E+00  0.000E+00 e/A
 length scales=  1.000000000000  1.000000000000  1.000000000000 bohr
              =  0.529177208590  0.529177208590  0.529177208590 angstroms
 prteigrs : about to open file NaClo_EIG
 Fermi (or HOMO) energy (hartree) =   0.05370   Average Vxc (hartree)=  -0.29273
 Eigenvalues (hartree) for nkpt=   1  k points:
 kpt#   1, nband=288, wtk=  1.00000, kpt=  0.2500  0.2500  0.2500 (reduced coord)
  -1.79805  -1.79805  -1.79805  -1.79804  -1.79791  -1.79790  -1.79790  -1.79790
  -1.79787  -1.79786  -1.79786  -1.79786  -1.79786  -1.79786  -1.79786  -1.79786
  -1.79786  -1.79786  -1.79786  -1.79786  -1.79786  -1.79785  -1.79785  -1.79785
  -1.79782  -1.79782  -1.79782  -1.79781  -1.79768  -1.79767  -1.79767  -1.79767
  -0.76650  -0.76648  -0.76646  -0.76642  -0.76634  -0.76633  -0.76632  -0.76630
  -0.76630  -0.76629  -0.76629  -0.76626  -0.76626  -0.76625  -0.76624  -0.76623
  -0.76622  -0.76621  -0.76618  -0.76618  -0.76617  -0.76616  -0.76615  -0.76613
  -0.76613  -0.76612  -0.76611  -0.76610  -0.76601  -0.76601  -0.76600  -0.76599
  -0.76598  -0.76597  -0.76597  -0.76596  -0.76595  -0.76595  -0.76594  -0.76593
  -0.76593  -0.76591  -0.76589  -0.76589  -0.76587  -0.76586  -0.76586  -0.76585
  -0.76584  -0.76583  -0.76583  -0.76582  -0.76582  -0.76582  -0.76581  -0.76579
  -0.76579  -0.76579  -0.76578  -0.76578  -0.76576  -0.76576  -0.76576  -0.76575
  -0.76574  -0.76574  -0.76572  -0.76572  -0.76572  -0.76571  -0.76571  -0.76570
  -0.76570  -0.76569  -0.76568  -0.76568  -0.76568  -0.76568  -0.76567  -0.76566
  -0.76566  -0.76565  -0.76564  -0.76564  -0.76563  -0.76561  -0.76561  -0.76560
  -0.76560  -0.76557  -0.76557  -0.76555  -0.76553  -0.76553  -0.76551  -0.76551
  -0.45988  -0.45642  -0.45634  -0.45628  -0.45374  -0.45365  -0.45359  -0.45192
  -0.45176  -0.45170  -0.45163  -0.45050  -0.45032  -0.45032  -0.45032  -0.45032
  -0.45022  -0.44991  -0.44990  -0.44986  -0.44901  -0.44891  -0.44887  -0.44871
  -0.44870  -0.44866  -0.44838  -0.44831  -0.44831  -0.44831  -0.44831  -0.44806
  -0.06206  -0.06206  -0.06205  -0.05822  -0.05390  -0.05389  -0.05389  -0.05286
  -0.05277  -0.05270  -0.05249  -0.05246  -0.05242  -0.05242  -0.05238  -0.05236
  -0.04858  -0.04858  -0.04852  -0.04852  -0.04847  -0.04847  -0.04721  -0.04717
  -0.04711  -0.04495  -0.04494  -0.04493  -0.03367  -0.03366  -0.03363  -0.03363
  -0.03360  -0.03360  -0.03162  -0.03160  -0.03157  -0.03086  -0.03084  -0.03082
  -0.02397  -0.02396  -0.02396  -0.02249  -0.02247  -0.02243  -0.02243  -0.02240
  -0.02238  -0.01896  -0.01894  -0.01890  -0.01889  -0.01885  -0.01884  -0.01780
  -0.01780  -0.01779  -0.01570  -0.01569  -0.01569  -0.01410  -0.01409  -0.01409
  -0.01295  -0.01293  -0.01288  -0.01223  -0.01218  -0.01214  -0.01168  -0.01163
  -0.01160  -0.01145  -0.01103  -0.01097  -0.01095  -0.01095  -0.01094  -0.01083
  -0.00946  -0.00946  -0.00946  -0.00635  -0.00634  -0.00555  -0.00551  -0.00548
  -0.00523  -0.00515  -0.00507  -0.00415  -0.00410  -0.00407   0.00012   0.00012
   0.20327   0.23935   0.23939   0.23944   0.26206   0.26225   0.26228   0.26233
   0.28017   0.28017   0.28017   0.28070   0.28074   0.28078   0.28541   0.28541
   0.28541   0.29733   0.29733   0.29738   0.29738   0.29743   0.29743   0.30947
   0.30948   0.30949   0.30977   0.30981   0.30987   0.31309   0.31311   0.31315
      occupation numbers for kpt#   1
   2.00000   2.00000   2.00000   2.00000   2.00000   2.00000   2.00000   2.00000
   2.00000   2.00000   2.00000   2.00000   2.00000   2.00000   2.00000   2.00000
   2.00000   2.00000   2.00000   2.00000   2.00000   2.00000   2.00000   2.00000
   2.00000   2.00000   2.00000   2.00000   2.00000   2.00000   2.00000   2.00000
   2.00000   2.00000   2.00000   2.00000   2.00000   2.00000   2.00000   2.00000
   2.00000   2.00000   2.00000   2.00000   2.00000   2.00000   2.00000   2.00000
   2.00000   2.00000   2.00000   2.00000   2.00000   2.00000   2.00000   2.00000
   2.00000   2.00000   2.00000   2.00000   2.00000   2.00000   2.00000   2.00000
   2.00000   2.00000   2.00000   2.00000   2.00000   2.00000   2.00000   2.00000
   2.00000   2.00000   2.00000   2.00000   2.00000   2.00000   2.00000   2.00000
   2.00000   2.00000   2.00000   2.00000   2.00000   2.00000   2.00000   2.00000
   2.00000   2.00000   2.00000   2.00000   2.00000   2.00000   2.00000   2.00000
   2.00000   2.00000   2.00000   2.00000   2.00000   2.00000   2.00000   2.00000
   2.00000   2.00000   2.00000   2.00000   2.00000   2.00000   2.00000   2.00000
   2.00000   2.00000   2.00000   2.00000   2.00000   2.00000   2.00000   2.00000
   2.00000   2.00000   2.00000   2.00000   2.00000   2.00000   2.00000   2.00000
   2.00000   2.00000   2.00000   2.00000   2.00000   2.00000   2.00000   2.00000
   2.00000   2.00000   2.00000   2.00000   2.00000   2.00000   2.00000   2.00000
   2.00000   2.00000   2.00000   2.00000   2.00000   2.00000   2.00000   2.00000
   2.00000   2.00000   2.00000   2.00000   2.00000   2.00000   2.00000   2.00000
   2.00000   2.00000   2.00000   2.00000   2.00000   2.00000   2.00000   2.00000
   2.00000   2.00000   2.00000   2.00000   2.00000   2.00000   2.00000   2.00000
   2.00000   2.00000   2.00000   2.00000   2.00000   2.00000   2.00000   2.00000
   2.00000   2.00000   2.00000   2.00000   2.00000   2.00000   2.00000   2.00000
   2.00000   2.00000   2.00000   2.00000   2.00000   2.00000   2.00000   2.00000
   2.00000   2.00000   2.00000   2.00000   2.00000   2.00000   2.00000   2.00000
   2.00000   2.00000   2.00000   2.00000   2.00000   2.00000   2.00000   2.00000
   2.00000   2.00000   2.00000   2.00000   2.00000   2.00000   2.00000   2.00000
   2.00000   2.00000   2.00000   2.00000   2.00000   2.00000   2.00000   2.00000
   2.00000   2.00000   2.00000   2.00000   2.00000   2.00000   2.00000   2.00000
   2.00000   2.00000   2.00000   2.00000   2.00000   2.00000   2.00000   2.00000
   2.00000   2.00000   2.00000   2.00000   2.00000   2.00000   2.00000   2.00000
   0.00000   0.00000   0.00000   0.00000   0.00000   0.00000   0.00000   0.00000
   0.00000   0.00000   0.00000   0.00000   0.00000   0.00000   0.00000   0.00000
   0.00000   0.00000   0.00000   0.00000   0.00000   0.00000   0.00000   0.00000
   0.00000   0.00000   0.00000   0.00000   0.00000   0.00000   0.00000   0.00000
 Total charge density [el/Bohr^3]
,     Maximum=    2.1462E+00  at reduced coord.    0.2500    0.0000    0.7500
,Next maximum=    2.1462E+00  at reduced coord.    0.2500    0.0000    0.2500
,     Minimum=   -2.3781E-03  at reduced coord.    0.2500    0.0000    0.0000
,Next minimum=   -2.3518E-03  at reduced coord.    0.7500    0.2500    0.2500
,  Integrated=    5.1200E+02

--------------------------------------------------------------------------------
 Components of total free energy (in Hartree) :

    Kinetic energy  =  4.57719683580316E+02
    Hartree energy  =  5.70440147564828E+02
    XC energy       = -1.96550107753438E+02
    Ewald energy    = -1.09116222428546E+03
    PspCore energy  =  1.88437805668699E+01
    Loc. psp. energy= -1.82290310499328E+03
    Spherical terms =  3.57980495482306E+01
    >>>>> Internal E= -2.02781377577194E+03

    -kT*entropy     = -4.10490061055712E-15
    >>>>>>>>> Etotal= -2.02781377577194E+03

 "Double-counting" decomposition of free energy:
    Band energy     = -2.96120681024432E+02
    Ewald energy    = -1.09116222428546E+03
    PspCore energy  =  1.88437805668699E+01
    Dble-C XC-energy= -5.15818478269332E+02
    Spherical terms = -1.43556168697215E+02
    >>>>> Internal E= -2.02781377170957E+03

    -kT*entropy     = -4.10490061055712E-15
    >>>> Etotal (DC)= -2.02781377170957E+03

  >Total energy in eV           = -5.51796190491261E+04
  >Total DC energy in eV        = -5.51796189385836E+04
--------------------------------------------------------------------------------

 Cartesian components of stress tensor (hartree/bohr^3)
  sigma(1 1)=  2.65437743E-06  sigma(3 2)=  0.00000000E+00
  sigma(2 2)=  2.67343275E-06  sigma(3 1)=  0.00000000E+00
  sigma(3 3)=  2.67343275E-06  sigma(2 1)=  0.00000000E+00

-Cartesian components of stress tensor (GPa)         [Pressure= -7.8468E-02 GPa]
- sigma(1 1)=  7.80944671E-02  sigma(3 2)=  0.00000000E+00
- sigma(2 2)=  7.86550939E-02  sigma(3 1)=  0.00000000E+00
- sigma(3 3)=  7.86550939E-02  sigma(2 1)=  0.00000000E+00

== END DATASET(S) ==============================================================
================================================================================

 -outvars: echo values of variables after computation  --------
        accesswff           1
            acell      1.0000000000E+00  1.0000000000E+00  1.0000000000E+00 Bohr
              amu      2.29897680E+01  3.54527000E+01
             ecut      2.75619940E+01 Hartree
           etotal     -2.0278137717E+03
            fcart     -9.3686935947E-04 -1.5840508729E-22 -1.0174321534E-22
                       1.5427277409E-04 -1.5840508729E-22 -1.0174321534E-22
                      -2.0037754988E-06 -1.5840508729E-22 -1.0174321534E-22
                       6.1901754652E-06 -1.5840508729E-22 -1.0174321534E-22
                      -2.0037754988E-06 -1.5840508729E-22 -1.0174321534E-22
                       6.1901754652E-06 -1.5840508729E-22 -1.0174321534E-22
                      -8.0420447123E-06 -1.5840508729E-22 -1.0174321534E-22
                       7.6808492779E-06 -1.5840508729E-22 -1.0174321534E-22
                      -2.9425052814E-05 -2.7937755737E-07 -2.7937755737E-07
                       2.0761625423E-05  6.5447390330E-08  6.5447390330E-08
                      -2.9425052814E-05  2.7937755737E-07 -2.7937755737E-07
                       2.0761625423E-05 -6.5447390330E-08  6.5447390330E-08
                      -2.9425052814E-05 -2.7937755737E-07  2.7937755737E-07
                       2.0761625423E-05  6.5447390330E-08 -6.5447390330E-08
                      -2.9425052814E-05  2.7937755737E-07  2.7937755737E-07
                       2.0761625423E-05 -6.5447390330E-08 -6.5447390330E-08
                       2.5449829726E-05 -1.5840508670E-22  1.0092007386E-04
                       2.5356145723E-05 -1.5840508729E-22 -9.8665720387E-05
                      -5.0665612827E-07 -1.5840508494E-22 -1.0747129760E-06
                      -3.7206568576E-07 -1.5840508729E-22  9.8991778616E-07
                       2.5449829726E-05 -1.5840508729E-22 -1.0092007386E-04
                       2.5356145723E-05 -1.5840508729E-22  9.8665720387E-05
                      -5.0665612827E-07 -1.5840508611E-22  1.0747129760E-06
                      -3.7206568576E-07 -1.5840508729E-22 -9.8991778616E-07
                       2.5449829726E-05  1.0092007386E-04 -1.0174321476E-22
                       2.5356145723E-05 -9.8665720387E-05 -1.0174321534E-22
                       2.5449829726E-05 -1.0092007386E-04 -1.0174321534E-22
                       2.5356145723E-05  9.8665720387E-05 -1.0174321534E-22
                      -5.0665612827E-07 -1.0747129760E-06 -1.0174321300E-22
                      -3.7206568576E-07  9.8991778616E-07 -1.0174321534E-22
                      -5.0665612827E-07  1.0747129760E-06 -1.0174321300E-22
                      -3.7206568576E-07 -9.8991778616E-07 -1.0174321534E-22
                      -3.6030350761E-06 -2.2335220654E-05 -2.2335220654E-05
                      -3.8791880272E-06  2.1980288456E-05  2.1980288456E-05
                      -3.6030350761E-06  2.2335220654E-05 -2.2335220654E-05
                      -3.8791880272E-06 -2.1980288456E-05  2.1980288456E-05
                      -3.6030350761E-06 -2.2335220654E-05  2.2335220654E-05
                      -3.8791880272E-06  2.1980288456E-05 -2.1980288456E-05
                      -3.6030350761E-06  2.2335220654E-05  2.2335220654E-05
                      -3.8791880272E-06 -2.1980288456E-05 -2.1980288456E-05
                       2.6355770546E-04 -1.5840508729E-22 -1.0174321534E-22
                       2.1107160850E-04 -1.5840508729E-22 -1.0174321534E-22
                       2.6466790294E-06 -1.5840508729E-22 -1.0174321534E-22
                       2.2986191259E-06 -1.5840508729E-22 -1.0174321534E-22
                       2.6466790294E-06 -1.5840508729E-22 -1.0174321534E-22
                       2.2986191259E-06 -1.5840508729E-22 -1.0174321534E-22
                      -6.9026237916E-08 -1.5840508729E-22 -1.0174321534E-22
                      -2.4721825356E-07 -1.5840508729E-22 -1.0174321534E-22
                       8.9463172660E-05 -1.5601895490E-06 -1.0174321476E-22
                      -4.9442710301E-05 -2.1557740233E-07 -1.0174321593E-22
                       8.9463172660E-05  1.5601895490E-06 -1.0174321476E-22
                      -4.9442710301E-05  2.1557740233E-07 -1.0174321534E-22
                       1.0618998258E-05  1.2433057303E-07 -1.0174321593E-22
                      -1.1825734982E-05 -1.8796726974E-08 -1.0174321534E-22
                       1.0618998258E-05 -1.2433057303E-07 -1.0174321593E-22
                      -1.1825734982E-05  1.8796726974E-08 -1.0174321534E-22
                       8.9463172660E-05 -1.5840508699E-22 -1.5601895490E-06
                      -4.9442710301E-05 -1.5840508758E-22 -2.1557740233E-07
                       1.0618998258E-05 -1.5840508787E-22  1.2433057303E-07
                      -1.1825734982E-05 -1.5840508729E-22 -1.8796726974E-08
                       8.9463172660E-05 -1.5840508699E-22  1.5601895490E-06
                      -4.9442710301E-05 -1.5840508758E-22  2.1557740233E-07
                       1.0618998258E-05 -1.5840508787E-22 -1.2433057303E-07
                      -1.1825734982E-05 -1.5840508729E-22  1.8796726974E-08
-          fftalg         112
      fft_opt_lob           2
           iprcch           6
              ixc     -101130
              kpt      2.50000000E-01  2.50000000E-01  2.50000000E-01
         kptrlatt        2    0    0      0    2    0      0    0    2
          kptrlen      4.30124457E+01
P           mkmem           1
            natom          64
            nband         288
            ngfft         108     108     108
          ngfftdg         180     180     180
             nkpt           1
-          npband          16
             nsym           8
           ntypat           2
              occ      2.000000  2.000000  2.000000  2.000000  2.000000  2.000000
                       2.000000  2.000000  2.000000  2.000000  2.000000  2.000000
                       2.000000  2.000000  2.000000  2.000000  2.000000  2.000000
                       2.000000  2.000000  2.000000  2.000000  2.000000  2.000000
                       2.000000  2.000000  2.000000  2.000000  2.000000  2.000000
                       2.000000  2.000000  2.000000  2.000000  2.000000  2.000000
                       2.000000  2.000000  2.000000  2.000000  2.000000  2.000000
                       2.000000  2.000000  2.000000  2.000000  2.000000  2.000000
                       2.000000  2.000000  2.000000  2.000000  2.000000  2.000000
                       2.000000  2.000000  2.000000  2.000000  2.000000  2.000000
                       2.000000  2.000000  2.000000  2.000000  2.000000  2.000000
                       2.000000  2.000000  2.000000  2.000000  2.000000  2.000000
                       2.000000  2.000000  2.000000  2.000000  2.000000  2.000000
                       2.000000  2.000000  2.000000  2.000000  2.000000  2.000000
                       2.000000  2.000000  2.000000  2.000000  2.000000  2.000000
                       2.000000  2.000000  2.000000  2.000000  2.000000  2.000000
                       2.000000  2.000000  2.000000  2.000000  2.000000  2.000000
                       2.000000  2.000000  2.000000  2.000000  2.000000  2.000000
                       2.000000  2.000000  2.000000  2.000000  2.000000  2.000000
                       2.000000  2.000000  2.000000  2.000000  2.000000  2.000000
                       2.000000  2.000000  2.000000  2.000000  2.000000  2.000000
                       2.000000  2.000000  2.000000  2.000000  2.000000  2.000000
                       2.000000  2.000000  2.000000  2.000000  2.000000  2.000000
                       2.000000  2.000000  2.000000  2.000000  2.000000  2.000000
                       2.000000  2.000000  2.000000  2.000000  2.000000  2.000000
                       2.000000  2.000000  2.000000  2.000000  2.000000  2.000000
                       2.000000  2.000000  2.000000  2.000000  2.000000  2.000000
                       2.000000  2.000000  2.000000  2.000000  2.000000  2.000000
                       2.000000  2.000000  2.000000  2.000000  2.000000  2.000000
                       2.000000  2.000000  2.000000  2.000000  2.000000  2.000000
                       2.000000  2.000000  2.000000  2.000000  2.000000  2.000000
                       2.000000  2.000000  2.000000  2.000000  2.000000  2.000000
                       2.000000  2.000000  2.000000  2.000000  2.000000  2.000000
                       2.000000  2.000000  2.000000  2.000000  2.000000  2.000000
                       2.000000  2.000000  2.000000  2.000000  2.000000  2.000000
                       2.000000  2.000000  2.000000  2.000000  2.000000  2.000000
                       2.000000  2.000000  2.000000  2.000000  2.000000  2.000000
                       2.000000  2.000000  2.000000  2.000000  2.000000  2.000000
                       2.000000  2.000000  2.000000  2.000000  2.000000  2.000000
                       2.000000  2.000000  2.000000  2.000000  2.000000  2.000000
                       2.000000  2.000000  2.000000  2.000000  2.000000  2.000000
                       2.000000  2.000000  2.000000  2.000000  2.000000  2.000000
                       2.000000  2.000000  2.000000  2.000000  0.000000  0.000000
                       0.000000  0.000000  0.000000  0.000000  0.000000  0.000000
                       0.000000  0.000000  0.000000  0.000000  0.000000  0.000000
                       0.000000  0.000000  0.000000  0.000000  0.000000  0.000000
                       0.000000  0.000000  0.000000  0.000000  0.000000  0.000000
                       0.000000  0.000000  0.000000  0.000000  0.000000  0.000000
           occopt           7
        paral_kgb           1
        pawecutdg      7.34986508E+01 Hartree
            rprim      2.1506222854E+01  0.0000000000E+00  0.0000000000E+00
                       0.0000000000E+00  2.1506222854E+01  0.0000000000E+00
                       0.0000000000E+00  0.0000000000E+00  2.1506222854E+01
           shiftk      5.00000000E-01  5.00000000E-01  5.00000000E-01
          spgroup          99
           strten      2.6543774335E-06  2.6734327543E-06  2.6734327543E-06
                       0.0000000000E+00  0.0000000000E+00  0.0000000000E+00
           symrel      1  0  0   0  1  0   0  0  1       1  0  0   0 -1  0   0  0  1
                       1  0  0   0  1  0   0  0 -1       1  0  0   0 -1  0   0  0 -1
                       1  0  0   0  0  1   0  1  0       1  0  0   0  0 -1   0  1  0
                       1  0  0   0  0  1   0 -1  0       1  0  0   0  0 -1   0 -1  0
           tolvrs      1.00000000E-12
           tsmear      1.00000000E-02 Hartree
            typat      1  1  1  1  1  1  1  1  1  1  1  1  1  1  1  1  1  1  1  1
                       1  1  1  1  1  1  1  1  1  1  1  1  2  2  2  2  2  2  2  2
                       2  2  2  2  2  2  2  2  2  2  2  2  2  2  2  2  2  2  2  2
                       2  2  2  2
           useylm           1
         wfoptalg          14
           xangst      2.6458860430E-02  0.0000000000E+00  0.0000000000E+00
                       5.6903014887E+00  0.0000000000E+00  0.0000000000E+00
                       0.0000000000E+00  5.6903014887E+00  0.0000000000E+00
                       5.6903014887E+00  5.6903014887E+00  0.0000000000E+00
                       0.0000000000E+00  0.0000000000E+00  5.6903014887E+00
                       5.6903014887E+00  0.0000000000E+00  5.6903014887E+00
                       0.0000000000E+00  5.6903014887E+00  5.6903014887E+00
                       5.6903014887E+00  5.6903014887E+00  5.6903014887E+00
                       0.0000000000E+00  2.8451507444E+00  2.8451507444E+00
                       5.6903014887E+00  2.8451507444E+00  2.8451507444E+00
                       0.0000000000E+00  8.5354522331E+00  2.8451507444E+00
                       5.6903014887E+00  8.5354522331E+00  2.8451507444E+00
                       0.0000000000E+00  2.8451507444E+00  8.5354522331E+00
                       5.6903014887E+00  2.8451507444E+00  8.5354522331E+00
                       0.0000000000E+00  8.5354522331E+00  8.5354522331E+00
                       5.6903014887E+00  8.5354522331E+00  8.5354522331E+00
                       2.8451507444E+00  0.0000000000E+00  2.8451507444E+00
                       8.5354522331E+00  0.0000000000E+00  2.8451507444E+00
                       2.8451507444E+00  5.6903014887E+00  2.8451507444E+00
                       8.5354522331E+00  5.6903014887E+00  2.8451507444E+00
                       2.8451507444E+00  0.0000000000E+00  8.5354522331E+00
                       8.5354522331E+00  0.0000000000E+00  8.5354522331E+00
                       2.8451507444E+00  5.6903014887E+00  8.5354522331E+00
                       8.5354522331E+00  5.6903014887E+00  8.5354522331E+00
                       2.8451507444E+00  2.8451507444E+00  0.0000000000E+00
                       8.5354522331E+00  2.8451507444E+00  0.0000000000E+00
                       2.8451507444E+00  8.5354522331E+00  0.0000000000E+00
                       8.5354522331E+00  8.5354522331E+00  0.0000000000E+00
                       2.8451507444E+00  2.8451507444E+00  5.6903014887E+00
                       8.5354522331E+00  2.8451507444E+00  5.6903014887E+00
                       2.8451507444E+00  8.5354522331E+00  5.6903014887E+00
                       8.5354522331E+00  8.5354522331E+00  5.6903014887E+00
                       2.8451507444E+00  2.8451507444E+00  2.8451507444E+00
                       8.5354522331E+00  2.8451507444E+00  2.8451507444E+00
                       2.8451507444E+00  8.5354522331E+00  2.8451507444E+00
                       8.5354522331E+00  8.5354522331E+00  2.8451507444E+00
                       2.8451507444E+00  2.8451507444E+00  8.5354522331E+00
                       8.5354522331E+00  2.8451507444E+00  8.5354522331E+00
                       2.8451507444E+00  8.5354522331E+00  8.5354522331E+00
                       8.5354522331E+00  8.5354522331E+00  8.5354522331E+00
                       2.8451507444E+00  0.0000000000E+00  0.0000000000E+00
                       8.5354522331E+00  0.0000000000E+00  0.0000000000E+00
                       2.8451507444E+00  5.6903014887E+00  0.0000000000E+00
                       8.5354522331E+00  5.6903014887E+00  0.0000000000E+00
                       2.8451507444E+00  0.0000000000E+00  5.6903014887E+00
                       8.5354522331E+00  0.0000000000E+00  5.6903014887E+00
                       2.8451507444E+00  5.6903014887E+00  5.6903014887E+00
                       8.5354522331E+00  5.6903014887E+00  5.6903014887E+00
                       0.0000000000E+00  2.8451507444E+00  0.0000000000E+00
                       5.6903014887E+00  2.8451507444E+00  0.0000000000E+00
                       0.0000000000E+00  8.5354522331E+00  0.0000000000E+00
                       5.6903014887E+00  8.5354522331E+00  0.0000000000E+00
                       0.0000000000E+00  2.8451507444E+00  5.6903014887E+00
                       5.6903014887E+00  2.8451507444E+00  5.6903014887E+00
                       0.0000000000E+00  8.5354522331E+00  5.6903014887E+00
                       5.6903014887E+00  8.5354522331E+00  5.6903014887E+00
                       0.0000000000E+00  0.0000000000E+00  2.8451507444E+00
                       5.6903014887E+00  0.0000000000E+00  2.8451507444E+00
                       0.0000000000E+00  5.6903014887E+00  2.8451507444E+00
                       5.6903014887E+00  5.6903014887E+00  2.8451507444E+00
                       0.0000000000E+00  0.0000000000E+00  8.5354522331E+00
                       5.6903014887E+00  0.0000000000E+00  8.5354522331E+00
                       0.0000000000E+00  5.6903014887E+00  8.5354522331E+00
                       5.6903014887E+00  5.6903014887E+00  8.5354522331E+00
            xcart      5.0000000000E-02  0.0000000000E+00  0.0000000000E+00
                       1.0753111427E+01  0.0000000000E+00  0.0000000000E+00
                       0.0000000000E+00  1.0753111427E+01  0.0000000000E+00
                       1.0753111427E+01  1.0753111427E+01  0.0000000000E+00
                       0.0000000000E+00  0.0000000000E+00  1.0753111427E+01
                       1.0753111427E+01  0.0000000000E+00  1.0753111427E+01
                       0.0000000000E+00  1.0753111427E+01  1.0753111427E+01
                       1.0753111427E+01  1.0753111427E+01  1.0753111427E+01
                       0.0000000000E+00  5.3765557136E+00  5.3765557136E+00
                       1.0753111427E+01  5.3765557136E+00  5.3765557136E+00
                       0.0000000000E+00  1.6129667141E+01  5.3765557136E+00
                       1.0753111427E+01  1.6129667141E+01  5.3765557136E+00
                       0.0000000000E+00  5.3765557136E+00  1.6129667141E+01
                       1.0753111427E+01  5.3765557136E+00  1.6129667141E+01
                       0.0000000000E+00  1.6129667141E+01  1.6129667141E+01
                       1.0753111427E+01  1.6129667141E+01  1.6129667141E+01
                       5.3765557136E+00  0.0000000000E+00  5.3765557136E+00
                       1.6129667141E+01  0.0000000000E+00  5.3765557136E+00
                       5.3765557136E+00  1.0753111427E+01  5.3765557136E+00
                       1.6129667141E+01  1.0753111427E+01  5.3765557136E+00
                       5.3765557136E+00  0.0000000000E+00  1.6129667141E+01
                       1.6129667141E+01  0.0000000000E+00  1.6129667141E+01
                       5.3765557136E+00  1.0753111427E+01  1.6129667141E+01
                       1.6129667141E+01  1.0753111427E+01  1.6129667141E+01
                       5.3765557136E+00  5.3765557136E+00  0.0000000000E+00
                       1.6129667141E+01  5.3765557136E+00  0.0000000000E+00
                       5.3765557136E+00  1.6129667141E+01  0.0000000000E+00
                       1.6129667141E+01  1.6129667141E+01  0.0000000000E+00
                       5.3765557136E+00  5.3765557136E+00  1.0753111427E+01
                       1.6129667141E+01  5.3765557136E+00  1.0753111427E+01
                       5.3765557136E+00  1.6129667141E+01  1.0753111427E+01
                       1.6129667141E+01  1.6129667141E+01  1.0753111427E+01
                       5.3765557136E+00  5.3765557136E+00  5.3765557136E+00
                       1.6129667141E+01  5.3765557136E+00  5.3765557136E+00
                       5.3765557136E+00  1.6129667141E+01  5.3765557136E+00
                       1.6129667141E+01  1.6129667141E+01  5.3765557136E+00
                       5.3765557136E+00  5.3765557136E+00  1.6129667141E+01
                       1.6129667141E+01  5.3765557136E+00  1.6129667141E+01
                       5.3765557136E+00  1.6129667141E+01  1.6129667141E+01
                       1.6129667141E+01  1.6129667141E+01  1.6129667141E+01
                       5.3765557136E+00  0.0000000000E+00  0.0000000000E+00
                       1.6129667141E+01  0.0000000000E+00  0.0000000000E+00
                       5.3765557136E+00  1.0753111427E+01  0.0000000000E+00
                       1.6129667141E+01  1.0753111427E+01  0.0000000000E+00
                       5.3765557136E+00  0.0000000000E+00  1.0753111427E+01
                       1.6129667141E+01  0.0000000000E+00  1.0753111427E+01
                       5.3765557136E+00  1.0753111427E+01  1.0753111427E+01
                       1.6129667141E+01  1.0753111427E+01  1.0753111427E+01
                       0.0000000000E+00  5.3765557136E+00  0.0000000000E+00
                       1.0753111427E+01  5.3765557136E+00  0.0000000000E+00
                       0.0000000000E+00  1.6129667141E+01  0.0000000000E+00
                       1.0753111427E+01  1.6129667141E+01  0.0000000000E+00
                       0.0000000000E+00  5.3765557136E+00  1.0753111427E+01
                       1.0753111427E+01  5.3765557136E+00  1.0753111427E+01
                       0.0000000000E+00  1.6129667141E+01  1.0753111427E+01
                       1.0753111427E+01  1.6129667141E+01  1.0753111427E+01
                       0.0000000000E+00  0.0000000000E+00  5.3765557136E+00
                       1.0753111427E+01  0.0000000000E+00  5.3765557136E+00
                       0.0000000000E+00  1.0753111427E+01  5.3765557136E+00
                       1.0753111427E+01  1.0753111427E+01  5.3765557136E+00
                       0.0000000000E+00  0.0000000000E+00  1.6129667141E+01
                       1.0753111427E+01  0.0000000000E+00  1.6129667141E+01
                       0.0000000000E+00  1.0753111427E+01  1.6129667141E+01
                       1.0753111427E+01  1.0753111427E+01  1.6129667141E+01
             xred      2.3249084853E-03  0.0000000000E+00  0.0000000000E+00
                       5.0000000000E-01  0.0000000000E+00  0.0000000000E+00
                       0.0000000000E+00  5.0000000000E-01  0.0000000000E+00
                       5.0000000000E-01  5.0000000000E-01  0.0000000000E+00
                       0.0000000000E+00  0.0000000000E+00  5.0000000000E-01
                       5.0000000000E-01  0.0000000000E+00  5.0000000000E-01
                       0.0000000000E+00  5.0000000000E-01  5.0000000000E-01
                       5.0000000000E-01  5.0000000000E-01  5.0000000000E-01
                       0.0000000000E+00  2.5000000000E-01  2.5000000000E-01
                       5.0000000000E-01  2.5000000000E-01  2.5000000000E-01
                       0.0000000000E+00  7.5000000000E-01  2.5000000000E-01
                       5.0000000000E-01  7.5000000000E-01  2.5000000000E-01
                       0.0000000000E+00  2.5000000000E-01  7.5000000000E-01
                       5.0000000000E-01  2.5000000000E-01  7.5000000000E-01
                       0.0000000000E+00  7.5000000000E-01  7.5000000000E-01
                       5.0000000000E-01  7.5000000000E-01  7.5000000000E-01
                       2.5000000000E-01  0.0000000000E+00  2.5000000000E-01
                       7.5000000000E-01  0.0000000000E+00  2.5000000000E-01
                       2.5000000000E-01  5.0000000000E-01  2.5000000000E-01
                       7.5000000000E-01  5.0000000000E-01  2.5000000000E-01
                       2.5000000000E-01  0.0000000000E+00  7.5000000000E-01
                       7.5000000000E-01  0.0000000000E+00  7.5000000000E-01
                       2.5000000000E-01  5.0000000000E-01  7.5000000000E-01
                       7.5000000000E-01  5.0000000000E-01  7.5000000000E-01
                       2.5000000000E-01  2.5000000000E-01  0.0000000000E+00
                       7.5000000000E-01  2.5000000000E-01  0.0000000000E+00
                       2.5000000000E-01  7.5000000000E-01  0.0000000000E+00
                       7.5000000000E-01  7.5000000000E-01  0.0000000000E+00
                       2.5000000000E-01  2.5000000000E-01  5.0000000000E-01
                       7.5000000000E-01  2.5000000000E-01  5.0000000000E-01
                       2.5000000000E-01  7.5000000000E-01  5.0000000000E-01
                       7.5000000000E-01  7.5000000000E-01  5.0000000000E-01
                       2.5000000000E-01  2.5000000000E-01  2.5000000000E-01
                       7.5000000000E-01  2.5000000000E-01  2.5000000000E-01
                       2.5000000000E-01  7.5000000000E-01  2.5000000000E-01
                       7.5000000000E-01  7.5000000000E-01  2.5000000000E-01
                       2.5000000000E-01  2.5000000000E-01  7.5000000000E-01
                       7.5000000000E-01  2.5000000000E-01  7.5000000000E-01
                       2.5000000000E-01  7.5000000000E-01  7.5000000000E-01
                       7.5000000000E-01  7.5000000000E-01  7.5000000000E-01
                       2.5000000000E-01  0.0000000000E+00  0.0000000000E+00
                       7.5000000000E-01  0.0000000000E+00  0.0000000000E+00
                       2.5000000000E-01  5.0000000000E-01  0.0000000000E+00
                       7.5000000000E-01  5.0000000000E-01  0.0000000000E+00
                       2.5000000000E-01  0.0000000000E+00  5.0000000000E-01
                       7.5000000000E-01  0.0000000000E+00  5.0000000000E-01
                       2.5000000000E-01  5.0000000000E-01  5.0000000000E-01
                       7.5000000000E-01  5.0000000000E-01  5.0000000000E-01
                       0.0000000000E+00  2.5000000000E-01  0.0000000000E+00
                       5.0000000000E-01  2.5000000000E-01  0.0000000000E+00
                       0.0000000000E+00  7.5000000000E-01  0.0000000000E+00
                       5.0000000000E-01  7.5000000000E-01  0.0000000000E+00
                       0.0000000000E+00  2.5000000000E-01  5.0000000000E-01
                       5.0000000000E-01  2.5000000000E-01  5.0000000000E-01
                       0.0000000000E+00  7.5000000000E-01  5.0000000000E-01
                       5.0000000000E-01  7.5000000000E-01  5.0000000000E-01
                       0.0000000000E+00  0.0000000000E+00  2.5000000000E-01
                       5.0000000000E-01  0.0000000000E+00  2.5000000000E-01
                       0.0000000000E+00  5.0000000000E-01  2.5000000000E-01
                       5.0000000000E-01  5.0000000000E-01  2.5000000000E-01
                       0.0000000000E+00  0.0000000000E+00  7.5000000000E-01
                       5.0000000000E-01  0.0000000000E+00  7.5000000000E-01
                       0.0000000000E+00  5.0000000000E-01  7.5000000000E-01
                       5.0000000000E-01  5.0000000000E-01  7.5000000000E-01
            znucl       11.00000   17.00000

================================================================================


- Timing analysis has been suppressed with timopt=0



================================================================================

 Suggested references for the acknowledgment of ABINIT usage.

 The users of ABINIT have little formal obligations with respect to the ABINIT group
 (those specified in the GNU General Public License, http://www.gnu.org/copyleft/gpl.txt).
 However, it is common practice in the scientific literature,
 to acknowledge the efforts of people that have made the research possible.
 In this spirit, please find below suggested citations of work written by ABINIT developers,
 corresponding to implementations inside of ABINIT that you have used in the present run.
 Note also that it will be of great value to readers of publications presenting these results,
 to read papers enabling them to understand the theoretical formalism and details
 of the ABINIT implementation.
 For information on why they are suggested, see also http://www.abinit.org/about/?text=acknowledgments.

 [1] Large scale ab initio calculations based on three levels of parallelization
 F. Bottin, S. Leroux, A. Knyazev, G. Zerah, Comput. Mat. Science 42, 329, (2008).
 Comment : in case paral_kgb is non-zero. Strong suggestion to cite this paper in your publications.
 This paper is also available at http://www.arxiv.org/abs/0707.3405

 [2] Implementation of the Projector Augmented-Wave Method in the ABINIT code.
 M. Torrent, F. Jollet, F. Bottin, G. Zerah, and X. Gonze Comput. Mat. Science 42, 337, (2008).
 Comment : PAW calculations. Strong suggestion to cite this paper.

 [3] Libxc: A library of exchange and correlation functionals for density functional theory.
 M.A.L. Marques, M.J.T. Oliveira, T. Burnus, Computer Physics Communications 183, 2227 (2012).
 Comment : to be cited when LibXC is used (negative value of ixc)
 Strong suggestion to cite this paper.

 [4] ABINIT : First-principles approach of materials and nanosystem properties.
 X. Gonze, B. Amadon, P.-M. Anglade, J.-M. Beuken, F. Bottin, P. Boulanger, F. Bruneval,
 D. Caliste, R. Caracas, M. Cote, T. Deutsch, L. Genovese, Ph. Ghosez, M. Giantomassi
 S. Goedecker, D.R. Hamann, P. Hermet, F. Jollet, G. Jomard, S. Leroux, M. Mancini, S. Mazevet,
 M.J.T. Oliveira, G. Onida, Y. Pouillon, T. Rangel, G.-M. Rignanese, D. Sangalli, R. Shaltaf,
 M. Torrent, M.J. Verstraete, G. Zerah, J.W. Zwanziger
 Computer Phys. Comm. 180, 2582-2615 (2009).
 Comment : the third generic paper describing the ABINIT project.
 Note that a version of this paper, that is not formatted for Computer Phys. Comm.
 is available at http://www.abinit.org/about/ABINIT_CPC_v10.pdf .
 The licence allows the authors to put it on the Web.

 [5] A brief introduction to the ABINIT software package.
 X. Gonze, G.-M. Rignanese, M. Verstraete, J.-M. Beuken, Y. Pouillon, R. Caracas, F. Jollet,
 M. Torrent, G. Zerah, M. Mikami, Ph. Ghosez, M. Veithen, J.-Y. Raty, V. Olevano, F. Bruneval,
 L. Reining, R. Godby, G. Onida, D.R. Hamann, and D.C. Allan.
 Z. Kristallogr. 220, 558-562 (2005).
 Comment : the second generic paper describing the ABINIT project. Note that this paper
 should be cited especially if you are using the GW part of ABINIT, as several authors
 of this part are not in the list of authors of the first or third paper.
 The .pdf of the latter paper is available at http://www.abinit.org/about/zfk_0505-06_558-562.pdf.
 Note that it should not redistributed (Copyright by Oldenburg Wissenshaftverlag,
 the licence allows the authors to put it on the Web).
-
- Proc.   0 individual time (sec): cpu=       1999.0  wall=       2005.1

================================================================================

 Calculation completed.
.Delivered    3 WARNINGs and   0 COMMENTs to log file.
+Overall time at end (sec) : cpu=      32047.5  wall=      32082.2
