
:LABEL1: Calculations in /home/togo/NaCl/NaCl-001
:LABEL2: on heerlen at Fri May  6 15:30:22 JST 2011
:LABEL3: using WIEN2k_11.1 (Release 5/4/2011) in /usr/local/calc/WIEN2k_11


            ---------
:ITE028: 28. ITERATION
            ---------

:NATO :   24 INDEPENDENT AND   64 TOTAL ATOMS IN UNITCELL
       SUBSTANCE: Title                                                       

       LATTICE                      = P   
:POT  : POTENTIAL OPTION   13
:LAT  : LATTICE CONSTANTS= 21.50622 21.50622 21.50622    1.571    1.571    1.571
:VOL  : UNIT CELL VOLUME =    9947.00586
       MODE OF CALCULATION IS       = RELA
       NON-SPINPOLARIZED CALCULATION
:IFFT  : FFT-parameters:  180  180  180 Factor: 2.00
       ATOMNUMBER=  1 Na1        VCOUL-ZERO =  0.16082E+00
:EFG001:                        EFG         =    -0.00025   *10**21  V / m**2
                               V20  TOT/SRF=    -0.00022     0.00002
                               V22  TOT/SRF=     0.00000     0.00000
                               V22M TOT/SRF=     0.00000     0.00000
                               V21  TOT/SRF=     0.00000     0.00000
                               V21M TOT/SRF=     0.00000     0.00000

              0.00013    0.00000    0.00000        0.00013    0.00000    0.00000
              0.00000    0.00013    0.00000        0.00000    0.00013    0.00000
              0.00000    0.00000   -0.00025        0.00000    0.00000   -0.00025

         MAIN DIRECTIONS OF THE EFG   1.0000  0.0000  0.0000
                                      0.0000  1.0000  0.0000
                                      0.0000  0.0000  1.0000
:ANG001:  ANGLE WITH OLD X-AXIS =         0.0

:ETA001:                         ASYMM. ETA =     0.00000


       ATOMNUMBER=  2 Na2        VCOUL-ZERO =  0.16082E+00
:EFG002:                        EFG         =     0.00019   *10**21  V / m**2
                               V20  TOT/SRF=     0.00017     0.00000
                               V22  TOT/SRF=     0.00000     0.00000
                               V22M TOT/SRF=     0.00000     0.00000
                               V21  TOT/SRF=     0.00000     0.00000
                               V21M TOT/SRF=     0.00000     0.00000

             -0.00010    0.00000    0.00000       -0.00010    0.00000    0.00000
              0.00000   -0.00010    0.00000        0.00000   -0.00010    0.00000
              0.00000    0.00000    0.00019        0.00000    0.00000    0.00019

         MAIN DIRECTIONS OF THE EFG   1.0000  0.0000  0.0000
                                      0.0000  1.0000  0.0000
                                      0.0000  0.0000  1.0000
:ANG002:  ANGLE WITH OLD X-AXIS =         0.0

:ETA002:                         ASYMM. ETA =     0.00000


       ATOMNUMBER=  3 Na3        VCOUL-ZERO =  0.16083E+00
:EFG003:                        EFG         =     0.00020   *10**21  V / m**2
                               V20  TOT/SRF=     0.00017     0.00000
                               V22  TOT/SRF=     0.00001     0.00000
                               V22M TOT/SRF=     0.00000     0.00000
                               V21  TOT/SRF=     0.00000     0.00000
                               V21M TOT/SRF=     0.00000     0.00000

             -0.00009    0.00000    0.00000       -0.00009    0.00000    0.00000
              0.00000   -0.00011    0.00000        0.00000   -0.00011    0.00000
              0.00000    0.00000    0.00020        0.00000    0.00000    0.00020

         MAIN DIRECTIONS OF THE EFG   1.0000  0.0000  0.0000
                                      0.0000  1.0000  0.0000
                                      0.0000  0.0000  1.0000
:ANG003:  ANGLE WITH OLD X-AXIS =         0.0

:ETA003:                         ASYMM. ETA =     0.07098


       ATOMNUMBER=  4 Na4        VCOUL-ZERO =  0.16082E+00
:EFG004:                        EFG         =     0.00019   *10**21  V / m**2
                               V20  TOT/SRF=     0.00017     0.00000
                               V22  TOT/SRF=     0.00000     0.00000
                               V22M TOT/SRF=     0.00000     0.00000
                               V21  TOT/SRF=     0.00000     0.00000
                               V21M TOT/SRF=     0.00000     0.00000

             -0.00009    0.00000    0.00000       -0.00009    0.00000    0.00000
              0.00000   -0.00010    0.00000        0.00000   -0.00010    0.00000
              0.00000    0.00000    0.00019        0.00000    0.00000    0.00019

         MAIN DIRECTIONS OF THE EFG   1.0000  0.0000  0.0000
                                      0.0000  1.0000  0.0000
                                      0.0000  0.0000  1.0000
:ANG004:  ANGLE WITH OLD X-AXIS =         0.0

:ETA004:                         ASYMM. ETA =     0.01298


       ATOMNUMBER=  5 Na5        VCOUL-ZERO =  0.16082E+00
:EFG005:                        EFG         =     0.00019   *10**21  V / m**2
                               V20  TOT/SRF=     0.00017     0.00000
                               V22  TOT/SRF=     0.00000     0.00000
                               V22M TOT/SRF=     0.00000     0.00000
                               V21  TOT/SRF=     0.00000     0.00000
                               V21M TOT/SRF=     0.00000     0.00000

             -0.00010    0.00000    0.00000       -0.00010    0.00000    0.00000
              0.00000   -0.00010    0.00000        0.00000   -0.00010    0.00000
              0.00000    0.00000    0.00019        0.00000    0.00000    0.00019

         MAIN DIRECTIONS OF THE EFG   1.0000  0.0000  0.0000
                                      0.0000  1.0000  0.0000
                                      0.0000  0.0000  1.0000
:ANG005:  ANGLE WITH OLD X-AXIS =         0.0

:ETA005:                         ASYMM. ETA =     0.00000


       ATOMNUMBER=  6 Na6        VCOUL-ZERO =  0.16082E+00
:EFG006:                        EFG         =     0.00019   *10**21  V / m**2
                               V20  TOT/SRF=     0.00017     0.00000
                               V22  TOT/SRF=     0.00000     0.00000
                               V22M TOT/SRF=     0.00000     0.00000
                               V21  TOT/SRF=     0.00000     0.00000
                               V21M TOT/SRF=     0.00000     0.00000

             -0.00010    0.00000    0.00000       -0.00010    0.00000    0.00000
              0.00000   -0.00010    0.00000        0.00000   -0.00010    0.00000
              0.00000    0.00000    0.00019        0.00000    0.00000    0.00019

         MAIN DIRECTIONS OF THE EFG   1.0000  0.0000  0.0000
                                      0.0000  1.0000  0.0000
                                      0.0000  0.0000  1.0000
:ANG006:  ANGLE WITH OLD X-AXIS =         0.0

:ETA006:                         ASYMM. ETA =     0.00000


       ATOMNUMBER=  7 Na7        VCOUL-ZERO =  0.16082E+00
:EFG007:                        EFG         =     0.00025   *10**21  V / m**2
                               V20  TOT/SRF=    -0.00002     0.00000
                               V22  TOT/SRF=     0.00018     0.00000
                               V22M TOT/SRF=    -0.00016    -0.00004
                               V21  TOT/SRF=     0.00000     0.00000
                               V21M TOT/SRF=     0.00000     0.00000

              0.00019   -0.00016    0.00000        0.00025    0.00000    0.00000
             -0.00016   -0.00016    0.00000        0.00000   -0.00023    0.00000
              0.00000    0.00000   -0.00002        0.00000    0.00000   -0.00002

         MAIN DIRECTIONS OF THE EFG   1.0000  0.3911  0.0000
                                     -0.3911  1.0000  0.0000
                                      0.0000  0.0000  1.0000
:ANG007:  ANGLE WITH OLD X-AXIS =        21.4

:ETA007:                         ASYMM. ETA =     0.83080


       ATOMNUMBER=  8 Na8        VCOUL-ZERO =  0.16082E+00
:EFG008:                        EFG         =     0.00018   *10**21  V / m**2
                               V20  TOT/SRF=    -0.00002     0.00000
                               V22  TOT/SRF=     0.00017     0.00000
                               V22M TOT/SRF=     0.00003     0.00001
                               V21  TOT/SRF=     0.00000     0.00000
                               V21M TOT/SRF=     0.00000     0.00000

              0.00018    0.00003    0.00000        0.00018    0.00000    0.00000
              0.00003   -0.00016    0.00000        0.00000   -0.00017    0.00000
              0.00000    0.00000   -0.00002        0.00000    0.00000   -0.00002

         MAIN DIRECTIONS OF THE EFG   1.0000 -0.0965  0.0000
                                      0.0965  1.0000  0.0000
                                      0.0000  0.0000  1.0000
:ANG008:  ANGLE WITH OLD X-AXIS =         5.5

:ETA008:                         ASYMM. ETA =     0.79087


       ATOMNUMBER=  9 Na9        VCOUL-ZERO =  0.16067E+00
:EFG009:                        EFG         =     0.00146   *10**21  V / m**2
                               V20  TOT/SRF=    -0.00027    -0.00007
                               V22  TOT/SRF=     0.00127     0.00015
                               V22M TOT/SRF=     0.00029     0.00007
                               V21  TOT/SRF=     0.00000     0.00000
                               V21M TOT/SRF=     0.00000     0.00000

              0.00143    0.00029    0.00000        0.00146    0.00000    0.00000
              0.00029   -0.00112    0.00000        0.00000   -0.00115    0.00000
              0.00000    0.00000   -0.00031        0.00000    0.00000   -0.00031

         MAIN DIRECTIONS OF THE EFG   1.0000 -0.1132  0.0000
                                      0.1132  1.0000  0.0000
                                      0.0000  0.0000  1.0000
:ANG009:  ANGLE WITH OLD X-AXIS =         6.5

:ETA009:                         ASYMM. ETA =     0.57415


       ATOMNUMBER= 10 Na10       VCOUL-ZERO =  0.16098E+00
:EFG010:                        EFG         =    -0.00163   *10**21  V / m**2
                               V20  TOT/SRF=     0.00061     0.00007
                               V22  TOT/SRF=    -0.00124    -0.00014
                               V22M TOT/SRF=     0.00029     0.00007
                               V21  TOT/SRF=     0.00000     0.00000
                               V21M TOT/SRF=     0.00000     0.00000

             -0.00160    0.00029    0.00000       -0.00163    0.00000    0.00000
              0.00029    0.00089    0.00000        0.00000    0.00093    0.00000
              0.00000    0.00000    0.00070        0.00000    0.00000    0.00070

         MAIN DIRECTIONS OF THE EFG   1.0000  0.1147  0.0000
                                     -0.1147  1.0000  0.0000
                                      0.0000  0.0000  1.0000
:ANG010:  ANGLE WITH OLD X-AXIS =         6.5

:ETA010:                         ASYMM. ETA =     0.13572


       ATOMNUMBER= 11 Na11       VCOUL-ZERO =  0.16079E+00
:EFG011:                        EFG         =     0.00054   *10**21  V / m**2
                               V20  TOT/SRF=     0.00047     0.00003
                               V22  TOT/SRF=     0.00012     0.00001
                               V22M TOT/SRF=     0.00000     0.00000
                               V21  TOT/SRF=     0.00000     0.00000
                               V21M TOT/SRF=     0.00000     0.00000

             -0.00015    0.00000    0.00000       -0.00015    0.00000    0.00000
              0.00000   -0.00039    0.00000        0.00000   -0.00039    0.00000
              0.00000    0.00000    0.00054        0.00000    0.00000    0.00054

         MAIN DIRECTIONS OF THE EFG   1.0000  0.0012  0.0000
                                     -0.0012  1.0000  0.0000
                                      0.0000  0.0000  1.0000
:ANG011:  ANGLE WITH OLD X-AXIS =         0.1

:ETA011:                         ASYMM. ETA =     0.44143


       ATOMNUMBER= 12 Na12       VCOUL-ZERO =  0.16086E+00
:EFG012:                        EFG         =     0.00018   *10**21  V / m**2
                               V20  TOT/SRF=    -0.00012    -0.00003
                               V22  TOT/SRF=    -0.00011    -0.00001
                               V22M TOT/SRF=     0.00000     0.00000
                               V21  TOT/SRF=     0.00000     0.00000
                               V21M TOT/SRF=     0.00000     0.00000

             -0.00003    0.00000    0.00000       -0.00003    0.00000    0.00000
              0.00000    0.00018    0.00000        0.00000    0.00018    0.00000
              0.00000    0.00000   -0.00014        0.00000    0.00000   -0.00014

         MAIN DIRECTIONS OF THE EFG   1.0000 -0.0010  0.0000
                                      0.0010  1.0000  0.0000
                                      0.0000  0.0000  1.0000
:ANG012:  ANGLE WITH OLD X-AXIS =         0.1

:ETA012:                         ASYMM. ETA =     0.62689


       ATOMNUMBER= 13 Cl13       VCOUL-ZERO =  0.24795E+00
:EFG013:                        EFG         =     0.00374   *10**21  V / m**2
                               V20  TOT/SRF=    -0.00098    -0.00002
                               V22  TOT/SRF=    -0.00309    -0.00004
                               V22M TOT/SRF=     0.00075     0.00001
                               V21  TOT/SRF=     0.00000     0.00000
                               V21M TOT/SRF=     0.00000     0.00000

             -0.00253    0.00075    0.00000       -0.00262    0.00000    0.00000
              0.00075    0.00365    0.00000        0.00000    0.00374    0.00000
              0.00000    0.00000   -0.00113        0.00000    0.00000   -0.00113

         MAIN DIRECTIONS OF THE EFG   1.0000  0.1190  0.0000
                                     -0.1190  1.0000  0.0000
                                      0.0000  0.0000  1.0000
:ANG013:  ANGLE WITH OLD X-AXIS =         6.8

:ETA013:                         ASYMM. ETA =     0.39729


       ATOMNUMBER= 14 Cl14       VCOUL-ZERO =  0.24810E+00
:EFG014:                        EFG         =    -0.00301   *10**21  V / m**2
                               V20  TOT/SRF=     0.00162     0.00002
                               V22  TOT/SRF=     0.00193     0.00004
                               V22M TOT/SRF=     0.00075     0.00001
                               V21  TOT/SRF=     0.00000     0.00000
                               V21M TOT/SRF=     0.00000     0.00000

              0.00100    0.00075    0.00000        0.00113    0.00000    0.00000
              0.00075   -0.00287    0.00000        0.00000   -0.00301    0.00000
              0.00000    0.00000    0.00188        0.00000    0.00000    0.00188

         MAIN DIRECTIONS OF THE EFG   1.0000 -0.1864  0.0000
                                      0.1864  1.0000  0.0000
                                      0.0000  0.0000  1.0000
:ANG014:  ANGLE WITH OLD X-AXIS =        10.6

:ETA014:                         ASYMM. ETA =     0.24609


       ATOMNUMBER= 15 Cl15       VCOUL-ZERO =  0.24722E+00
:EFG015:                        EFG         =    -0.00229   *10**21  V / m**2
                               V20  TOT/SRF=    -0.00199     0.00102
                               V22  TOT/SRF=     0.00000     0.00000
                               V22M TOT/SRF=     0.00000     0.00000
                               V21  TOT/SRF=     0.00000     0.00000
                               V21M TOT/SRF=     0.00000     0.00000

              0.00115    0.00000    0.00000        0.00115    0.00000    0.00000
              0.00000    0.00115    0.00000        0.00000    0.00115    0.00000
              0.00000    0.00000   -0.00229        0.00000    0.00000   -0.00229

         MAIN DIRECTIONS OF THE EFG   1.0000  0.0000  0.0000
                                      0.0000  1.0000  0.0000
                                      0.0000  0.0000  1.0000
:ANG015:  ANGLE WITH OLD X-AXIS =         0.0

:ETA015:                         ASYMM. ETA =     0.00000


       ATOMNUMBER= 16 Cl16       VCOUL-ZERO =  0.24883E+00
:EFG016:                        EFG         =     0.00173   *10**21  V / m**2
                               V20  TOT/SRF=     0.00150    -0.00100
                               V22  TOT/SRF=     0.00000     0.00000
                               V22M TOT/SRF=     0.00000     0.00000
                               V21  TOT/SRF=     0.00000     0.00000
                               V21M TOT/SRF=     0.00000     0.00000

             -0.00087    0.00000    0.00000       -0.00087    0.00000    0.00000
              0.00000   -0.00087    0.00000        0.00000   -0.00087    0.00000
              0.00000    0.00000    0.00173        0.00000    0.00000    0.00173

         MAIN DIRECTIONS OF THE EFG   1.0000  0.0000  0.0000
                                      0.0000  1.0000  0.0000
                                      0.0000  0.0000  1.0000
:ANG016:  ANGLE WITH OLD X-AXIS =         0.0

:ETA016:                         ASYMM. ETA =     0.00000


       ATOMNUMBER= 17 Cl17       VCOUL-ZERO =  0.24800E+00
:EFG017:                        EFG         =    -0.00096   *10**21  V / m**2
                               V20  TOT/SRF=    -0.00083    -0.00002
                               V22  TOT/SRF=    -0.00025    -0.00001
                               V22M TOT/SRF=     0.00000     0.00000
                               V21  TOT/SRF=     0.00000     0.00000
                               V21M TOT/SRF=     0.00000     0.00000

              0.00023    0.00000    0.00000        0.00023    0.00000    0.00000
              0.00000    0.00074    0.00000        0.00000    0.00074    0.00000
              0.00000    0.00000   -0.00096        0.00000    0.00000   -0.00096

         MAIN DIRECTIONS OF THE EFG   1.0000  0.0000  0.0000
                                      0.0000  1.0000  0.0000
                                      0.0000  0.0000  1.0000
:ANG017:  ANGLE WITH OLD X-AXIS =         0.0

:ETA017:                         ASYMM. ETA =     0.53023


       ATOMNUMBER= 18 Cl18       VCOUL-ZERO =  0.24805E+00
:EFG018:                        EFG         =     0.00131   *10**21  V / m**2
                               V20  TOT/SRF=     0.00113     0.00002
                               V22  TOT/SRF=     0.00020     0.00001
                               V22M TOT/SRF=     0.00000     0.00000
                               V21  TOT/SRF=     0.00000     0.00000
                               V21M TOT/SRF=     0.00000     0.00000

             -0.00045    0.00000    0.00000       -0.00045    0.00000    0.00000
              0.00000   -0.00086    0.00000        0.00000   -0.00086    0.00000
              0.00000    0.00000    0.00131        0.00000    0.00000    0.00131

         MAIN DIRECTIONS OF THE EFG   1.0000  0.0000  0.0000
                                      0.0000  1.0000  0.0000
                                      0.0000  0.0000  1.0000
:ANG018:  ANGLE WITH OLD X-AXIS =         0.0

:ETA018:                         ASYMM. ETA =     0.30568


       ATOMNUMBER= 19 Cl19       VCOUL-ZERO =  0.24800E+00
:EFG019:                        EFG         =    -0.00060   *10**21  V / m**2
                               V20  TOT/SRF=    -0.00052    -0.00001
                               V22  TOT/SRF=     0.00000     0.00000
                               V22M TOT/SRF=     0.00000     0.00000
                               V21  TOT/SRF=     0.00000     0.00000
                               V21M TOT/SRF=     0.00000     0.00000

              0.00030    0.00000    0.00000        0.00030    0.00000    0.00000
              0.00000    0.00030    0.00000        0.00000    0.00030    0.00000
              0.00000    0.00000   -0.00060        0.00000    0.00000   -0.00060

         MAIN DIRECTIONS OF THE EFG   1.0000  0.0000  0.0000
                                      0.0000  1.0000  0.0000
                                      0.0000  0.0000  1.0000
:ANG019:  ANGLE WITH OLD X-AXIS =         0.0

:ETA019:                         ASYMM. ETA =     0.00000


       ATOMNUMBER= 20 Cl20       VCOUL-ZERO =  0.24805E+00
:EFG020:                        EFG         =     0.00100   *10**21  V / m**2
                               V20  TOT/SRF=     0.00087     0.00001
                               V22  TOT/SRF=     0.00000     0.00000
                               V22M TOT/SRF=     0.00000     0.00000
                               V21  TOT/SRF=     0.00000     0.00000
                               V21M TOT/SRF=     0.00000     0.00000

             -0.00050    0.00000    0.00000       -0.00050    0.00000    0.00000
              0.00000   -0.00050    0.00000        0.00000   -0.00050    0.00000
              0.00000    0.00000    0.00100        0.00000    0.00000    0.00100

         MAIN DIRECTIONS OF THE EFG   1.0000  0.0000  0.0000
                                      0.0000  1.0000  0.0000
                                      0.0000  0.0000  1.0000
:ANG020:  ANGLE WITH OLD X-AXIS =         0.0

:ETA020:                         ASYMM. ETA =     0.00000


       ATOMNUMBER= 21 Cl21       VCOUL-ZERO =  0.24803E+00
:EFG021:                        EFG         =    -0.00057   *10**21  V / m**2
                               V20  TOT/SRF=    -0.00050     0.00000
                               V22  TOT/SRF=     0.00021     0.00000
                               V22M TOT/SRF=    -0.00006     0.00000
                               V21  TOT/SRF=     0.00000     0.00000
                               V21M TOT/SRF=     0.00000     0.00000

              0.00049   -0.00006    0.00000        0.00050    0.00000    0.00000
             -0.00006    0.00008    0.00000        0.00000    0.00007    0.00000
              0.00000    0.00000   -0.00057        0.00000    0.00000   -0.00057

         MAIN DIRECTIONS OF THE EFG   1.0000  0.1517  0.0000
                                     -0.1517  1.0000  0.0000
                                      0.0000  0.0000  1.0000
:ANG021:  ANGLE WITH OLD X-AXIS =         8.6

:ETA021:                         ASYMM. ETA =     0.75846


       ATOMNUMBER= 22 Cl22       VCOUL-ZERO =  0.24803E+00
:EFG022:                        EFG         =     0.01451   *10**21  V / m**2
                               V20  TOT/SRF=    -0.00060     0.00001
                               V22  TOT/SRF=     0.00028     0.00000
                               V22M TOT/SRF=    -0.01416    -0.00042
                               V21  TOT/SRF=     0.00000     0.00000
                               V21M TOT/SRF=     0.00000     0.00000

              0.00062   -0.01416    0.00000        0.01451    0.00000    0.00000
             -0.01416    0.00007    0.00000        0.00000   -0.01382    0.00000
              0.00000    0.00000   -0.00069        0.00000    0.00000   -0.00069

         MAIN DIRECTIONS OF THE EFG   1.0000  0.9807  0.0000
                                     -0.9807  1.0000  0.0000
                                      0.0000  0.0000  1.0000
:ANG022:  ANGLE WITH OLD X-AXIS =        44.4

:ETA022:                         ASYMM. ETA =     0.90491


       ATOMNUMBER= 23 Cl23       VCOUL-ZERO =  0.24803E+00
:EFG023:                        EFG         =     0.00412   *10**21  V / m**2
                               V20  TOT/SRF=    -0.00059     0.00000
                               V22  TOT/SRF=     0.00023     0.00000
                               V22M TOT/SRF=     0.00377     0.00006
                               V21  TOT/SRF=     0.00000     0.00000
                               V21M TOT/SRF=     0.00000     0.00000

              0.00057    0.00377    0.00000        0.00412    0.00000    0.00000
              0.00377    0.00011    0.00000        0.00000   -0.00344    0.00000
              0.00000    0.00000   -0.00068        0.00000    0.00000   -0.00068

         MAIN DIRECTIONS OF THE EFG   1.0000 -0.9398  0.0000
                                      0.9398  1.0000  0.0000
                                      0.0000  0.0000  1.0000
:ANG023:  ANGLE WITH OLD X-AXIS =        43.2

:ETA023:                         ASYMM. ETA =     0.66992


       ATOMNUMBER= 24 Cl24       VCOUL-ZERO =  0.24803E+00
:EFG024:                        EFG         =    -0.00058   *10**21  V / m**2
                               V20  TOT/SRF=    -0.00050     0.00000
                               V22  TOT/SRF=     0.00021     0.00000
                               V22M TOT/SRF=     0.00014     0.00000
                               V21  TOT/SRF=     0.00000     0.00000
                               V21M TOT/SRF=     0.00000     0.00000

              0.00050    0.00014    0.00000        0.00054    0.00000    0.00000
              0.00014    0.00007    0.00000        0.00000    0.00004    0.00000
              0.00000    0.00000   -0.00058        0.00000    0.00000   -0.00058

         MAIN DIRECTIONS OF THE EFG   1.0000 -0.2899  0.0000
                                      0.2899  1.0000  0.0000
                                      0.0000  0.0000  1.0000
:ANG024:  ANGLE WITH OLD X-AXIS =        16.2

:ETA024:                         ASYMM. ETA =     0.87748


     HELLMANN-FEYNMAN-FORCE IN mRy/a.u. = |F|  Fx       Fy             Fz
:FHF001:   1.ATOM          1.596          0.000          0.000          1.596

     HELLMANN-FEYNMAN-FORCE IN mRy/a.u. = |F|  Fx       Fy             Fz
:FHF002:   2.ATOM          1.400          0.000          0.000          1.400

     HELLMANN-FEYNMAN-FORCE IN mRy/a.u. = |F|  Fx       Fy             Fz
:FHF003:   3.ATOM          0.006          0.000          0.000         -0.006

     HELLMANN-FEYNMAN-FORCE IN mRy/a.u. = |F|  Fx       Fy             Fz
:FHF004:   4.ATOM          0.030          0.000          0.000          0.030

     HELLMANN-FEYNMAN-FORCE IN mRy/a.u. = |F|  Fx       Fy             Fz
:FHF005:   5.ATOM          0.059          0.000          0.000         -0.059

     HELLMANN-FEYNMAN-FORCE IN mRy/a.u. = |F|  Fx       Fy             Fz
:FHF006:   6.ATOM          0.047          0.000          0.000          0.047

     HELLMANN-FEYNMAN-FORCE IN mRy/a.u. = |F|  Fx       Fy             Fz
:FHF007:   7.ATOM          0.178          0.178          0.001          0.000

     HELLMANN-FEYNMAN-FORCE IN mRy/a.u. = |F|  Fx       Fy             Fz
:FHF008:   8.ATOM          0.144         -0.144         -0.001          0.000

     HELLMANN-FEYNMAN-FORCE IN mRy/a.u. = |F|  Fx       Fy             Fz
:FHF009:   9.ATOM          0.708          0.697          0.129          0.000

     HELLMANN-FEYNMAN-FORCE IN mRy/a.u. = |F|  Fx       Fy             Fz
:FHF010:  10.ATOM          0.705         -0.693          0.130          0.000

     HELLMANN-FEYNMAN-FORCE IN mRy/a.u. = |F|  Fx       Fy             Fz
:FHF011:  11.ATOM          0.033         -0.010          0.031          0.000

     HELLMANN-FEYNMAN-FORCE IN mRy/a.u. = |F|  Fx       Fy             Fz
:FHF012:  12.ATOM          0.032          0.008          0.032          0.000

     HELLMANN-FEYNMAN-FORCE IN mRy/a.u. = |F|  Fx       Fy             Fz
:FHF013:  13.ATOM          0.202         -0.028         -0.201          0.000

     HELLMANN-FEYNMAN-FORCE IN mRy/a.u. = |F|  Fx       Fy             Fz
:FHF014:  14.ATOM          0.199         -0.028          0.197          0.000

     HELLMANN-FEYNMAN-FORCE IN mRy/a.u. = |F|  Fx       Fy             Fz
:FHF015:  15.ATOM          1.866          0.000          0.000          1.866

     HELLMANN-FEYNMAN-FORCE IN mRy/a.u. = |F|  Fx       Fy             Fz
:FHF016:  16.ATOM          1.864          0.000          0.000          1.864

     HELLMANN-FEYNMAN-FORCE IN mRy/a.u. = |F|  Fx       Fy             Fz
:FHF017:  17.ATOM          0.034          0.000          0.000         -0.034

     HELLMANN-FEYNMAN-FORCE IN mRy/a.u. = |F|  Fx       Fy             Fz
:FHF018:  18.ATOM          0.033          0.000          0.000         -0.033

     HELLMANN-FEYNMAN-FORCE IN mRy/a.u. = |F|  Fx       Fy             Fz
:FHF019:  19.ATOM          0.020          0.000          0.000         -0.020

     HELLMANN-FEYNMAN-FORCE IN mRy/a.u. = |F|  Fx       Fy             Fz
:FHF020:  20.ATOM          0.019          0.000          0.000         -0.019

     HELLMANN-FEYNMAN-FORCE IN mRy/a.u. = |F|  Fx       Fy             Fz
:FHF021:  21.ATOM          0.064          0.064          0.000          0.000

     HELLMANN-FEYNMAN-FORCE IN mRy/a.u. = |F|  Fx       Fy             Fz
:FHF022:  22.ATOM          0.905         -0.905         -0.005          0.000

     HELLMANN-FEYNMAN-FORCE IN mRy/a.u. = |F|  Fx       Fy             Fz
:FHF023:  23.ATOM          0.297          0.297         -0.001          0.000

     HELLMANN-FEYNMAN-FORCE IN mRy/a.u. = |F|  Fx       Fy             Fz
:FHF024:  24.ATOM          0.074         -0.074          0.000          0.000

:FIT001: LUSE= 13 SIGMA OF V-XC FIT FOR ATOM  1  0.1985948E-01
:FIT001: LUSE= 13 SIGMA OF V-XC FIT FOR ATOM  1  0.1985948E-01
:FIT002: LUSE= 13 SIGMA OF V-XC FIT FOR ATOM  2  0.1986661E-01
:FIT002: LUSE= 13 SIGMA OF V-XC FIT FOR ATOM  2  0.1986661E-01
:FIT003: LUSE= 13 SIGMA OF V-XC FIT FOR ATOM  3  0.1986670E-01
:FIT003: LUSE= 13 SIGMA OF V-XC FIT FOR ATOM  3  0.1986670E-01
:FIT004: LUSE= 13 SIGMA OF V-XC FIT FOR ATOM  4  0.1986669E-01
:FIT004: LUSE= 13 SIGMA OF V-XC FIT FOR ATOM  4  0.1986669E-01
:FIT005: LUSE= 13 SIGMA OF V-XC FIT FOR ATOM  5  0.1986668E-01
:FIT005: LUSE= 13 SIGMA OF V-XC FIT FOR ATOM  5  0.1986668E-01
:FIT006: LUSE= 13 SIGMA OF V-XC FIT FOR ATOM  6  0.1986667E-01
:FIT006: LUSE= 13 SIGMA OF V-XC FIT FOR ATOM  6  0.1986667E-01
:FIT007: LUSE= 13 SIGMA OF V-XC FIT FOR ATOM  7  0.1663010E-01
:FIT007: LUSE= 13 SIGMA OF V-XC FIT FOR ATOM  7  0.1663010E-01
:FIT008: LUSE= 13 SIGMA OF V-XC FIT FOR ATOM  8  0.1663008E-01
:FIT008: LUSE= 13 SIGMA OF V-XC FIT FOR ATOM  8  0.1663008E-01
:FIT009: LUSE= 13 SIGMA OF V-XC FIT FOR ATOM  9  0.1986101E-01
:FIT009: LUSE= 13 SIGMA OF V-XC FIT FOR ATOM  9  0.1986101E-01
:FIT010: LUSE= 13 SIGMA OF V-XC FIT FOR ATOM 10  0.1985383E-01
:FIT010: LUSE= 13 SIGMA OF V-XC FIT FOR ATOM 10  0.1985383E-01
:FIT011: LUSE= 13 SIGMA OF V-XC FIT FOR ATOM 11  0.1986201E-01
:FIT011: LUSE= 13 SIGMA OF V-XC FIT FOR ATOM 11  0.1986201E-01
:FIT012: LUSE= 13 SIGMA OF V-XC FIT FOR ATOM 12  0.1986304E-01
:FIT012: LUSE= 13 SIGMA OF V-XC FIT FOR ATOM 12  0.1986304E-01
:FIT013: LUSE= 13 SIGMA OF V-XC FIT FOR ATOM 13  0.9210609E-04
:FIT013: LUSE= 13 SIGMA OF V-XC FIT FOR ATOM 13  0.9210609E-04
:FIT014: LUSE= 13 SIGMA OF V-XC FIT FOR ATOM 14  0.9213133E-04
:FIT014: LUSE= 13 SIGMA OF V-XC FIT FOR ATOM 14  0.9213133E-04
:FIT015: LUSE= 13 SIGMA OF V-XC FIT FOR ATOM 15  0.9279319E-04
:FIT015: LUSE= 13 SIGMA OF V-XC FIT FOR ATOM 15  0.9279319E-04
:FIT016: LUSE= 13 SIGMA OF V-XC FIT FOR ATOM 16  0.9153627E-04
:FIT016: LUSE= 13 SIGMA OF V-XC FIT FOR ATOM 16  0.9153627E-04
:FIT017: LUSE= 13 SIGMA OF V-XC FIT FOR ATOM 17  0.9212649E-04
:FIT017: LUSE= 13 SIGMA OF V-XC FIT FOR ATOM 17  0.9212649E-04
:FIT018: LUSE= 13 SIGMA OF V-XC FIT FOR ATOM 18  0.9212681E-04
:FIT018: LUSE= 13 SIGMA OF V-XC FIT FOR ATOM 18  0.9212681E-04
:FIT019: LUSE= 13 SIGMA OF V-XC FIT FOR ATOM 19  0.9212582E-04
:FIT019: LUSE= 13 SIGMA OF V-XC FIT FOR ATOM 19  0.9212582E-04
:FIT020: LUSE= 13 SIGMA OF V-XC FIT FOR ATOM 20  0.9212522E-04
:FIT020: LUSE= 13 SIGMA OF V-XC FIT FOR ATOM 20  0.9212522E-04
:FIT021: LUSE= 13 SIGMA OF V-XC FIT FOR ATOM 21  0.9212887E-04
:FIT021: LUSE= 13 SIGMA OF V-XC FIT FOR ATOM 21  0.9212887E-04
:FIT022: LUSE= 13 SIGMA OF V-XC FIT FOR ATOM 22  0.9213139E-04
:FIT022: LUSE= 13 SIGMA OF V-XC FIT FOR ATOM 22  0.9213139E-04
:FIT023: LUSE= 13 SIGMA OF V-XC FIT FOR ATOM 23  0.9213051E-04
:FIT023: LUSE= 13 SIGMA OF V-XC FIT FOR ATOM 23  0.9213051E-04
:FIT024: LUSE= 13 SIGMA OF V-XC FIT FOR ATOM 24  0.9212888E-04
:FIT024: LUSE= 13 SIGMA OF V-XC FIT FOR ATOM 24  0.9212888E-04
:DEN  : DENSITY INTEGRAL  =        -17782.20133057   (Ry)
       ELS_POTENTIAL_AT Z=0 and Z=0.5:   0.00000   0.00000
       ELS_POTENTIAL_AT Y=0 and Y=0.5:  -0.94486  -0.94486
:VZERO:v0,v0c,v0x  -0.53070   0.00000  -0.53070 v5,v5c,v5x  -0.53070   0.00000  -0.53070
:VZERY:v0,v0c,v0x  -1.71492  -0.94486  -0.77006 v5,v5c,v5x  -1.71492  -0.94486  -0.77006
:VZERX:v0,v0c,v0x  -1.12280  -0.47242  -0.65038 v5,v5c,v5x  -1.12281  -0.47243  -0.65038

          ATOMIC SPHERE DEPENDENT PARAMETERS FOR ATOM  Na1       
:e__0001: OVERALL ENERGY PARAMETER IS   -0.3432
          OVERALL BASIS SET ON ATOM IS LAPW
:E0_0001: E( 0)=   -0.3432
             APW+lo
:E0_0001: E( 0)=   -3.7410   E(BOTTOM)=   -3.760   E(TOP)=   -3.722
             LOCAL ORBITAL
:E1_0001: E( 1)=   -1.6850   E(BOTTOM)=   -1.738   E(TOP)=   -1.632
             APW+lo
:E1_0001: E( 1)=   -0.3432
             LOCAL ORBITAL

          ATOMIC SPHERE DEPENDENT PARAMETERS FOR ATOM  Na2       
:e__0002: OVERALL ENERGY PARAMETER IS   -0.3432
          OVERALL BASIS SET ON ATOM IS LAPW
:E0_0002: E( 0)=   -0.3432
             APW+lo
:E0_0002: E( 0)=   -3.7410   E(BOTTOM)=   -3.760   E(TOP)=   -3.722
             LOCAL ORBITAL
:E1_0002: E( 1)=   -1.6850   E(BOTTOM)=   -1.738   E(TOP)=   -1.632
             APW+lo
:E1_0002: E( 1)=   -0.3432
             LOCAL ORBITAL

          ATOMIC SPHERE DEPENDENT PARAMETERS FOR ATOM  Na3       
:e__0003: OVERALL ENERGY PARAMETER IS   -0.3432
          OVERALL BASIS SET ON ATOM IS LAPW
:E0_0003: E( 0)=   -0.3432
             APW+lo
:E0_0003: E( 0)=   -3.7410   E(BOTTOM)=   -3.760   E(TOP)=   -3.722
             LOCAL ORBITAL
:E1_0003: E( 1)=   -1.6850   E(BOTTOM)=   -1.738   E(TOP)=   -1.632
             APW+lo
:E1_0003: E( 1)=   -0.3432
             LOCAL ORBITAL

          ATOMIC SPHERE DEPENDENT PARAMETERS FOR ATOM  Na4       
:e__0004: OVERALL ENERGY PARAMETER IS   -0.3432
          OVERALL BASIS SET ON ATOM IS LAPW
:E0_0004: E( 0)=   -0.3432
             APW+lo
:E0_0004: E( 0)=   -3.7410   E(BOTTOM)=   -3.760   E(TOP)=   -3.722
             LOCAL ORBITAL
:E1_0004: E( 1)=   -1.6850   E(BOTTOM)=   -1.738   E(TOP)=   -1.632
             APW+lo
:E1_0004: E( 1)=   -0.3432
             LOCAL ORBITAL

          ATOMIC SPHERE DEPENDENT PARAMETERS FOR ATOM  Na5       
:e__0005: OVERALL ENERGY PARAMETER IS   -0.3432
          OVERALL BASIS SET ON ATOM IS LAPW
:E0_0005: E( 0)=   -0.3432
             APW+lo
:E0_0005: E( 0)=   -3.7410   E(BOTTOM)=   -3.760   E(TOP)=   -3.722
             LOCAL ORBITAL
:E1_0005: E( 1)=   -1.6850   E(BOTTOM)=   -1.738   E(TOP)=   -1.632
             APW+lo
:E1_0005: E( 1)=   -0.3432
             LOCAL ORBITAL

          ATOMIC SPHERE DEPENDENT PARAMETERS FOR ATOM  Na6       
:e__0006: OVERALL ENERGY PARAMETER IS   -0.3432
          OVERALL BASIS SET ON ATOM IS LAPW
:E0_0006: E( 0)=   -0.3432
             APW+lo
:E0_0006: E( 0)=   -3.7410   E(BOTTOM)=   -3.760   E(TOP)=   -3.722
             LOCAL ORBITAL
:E1_0006: E( 1)=   -1.6850   E(BOTTOM)=   -1.738   E(TOP)=   -1.632
             APW+lo
:E1_0006: E( 1)=   -0.3432
             LOCAL ORBITAL

          ATOMIC SPHERE DEPENDENT PARAMETERS FOR ATOM  Na7       
:e__0007: OVERALL ENERGY PARAMETER IS   -0.3432
          OVERALL BASIS SET ON ATOM IS LAPW
:E0_0007: E( 0)=   -0.3432
             APW+lo
:E0_0007: E( 0)=   -3.7410   E(BOTTOM)=   -3.760   E(TOP)=   -3.722
             LOCAL ORBITAL
:E1_0007: E( 1)=   -1.6850   E(BOTTOM)=   -1.738   E(TOP)=   -1.632
             APW+lo
:E1_0007: E( 1)=   -0.3432
             LOCAL ORBITAL

          ATOMIC SPHERE DEPENDENT PARAMETERS FOR ATOM  Na8       
:e__0008: OVERALL ENERGY PARAMETER IS   -0.3432
          OVERALL BASIS SET ON ATOM IS LAPW
:E0_0008: E( 0)=   -0.3432
             APW+lo
:E0_0008: E( 0)=   -3.7410   E(BOTTOM)=   -3.760   E(TOP)=   -3.722
             LOCAL ORBITAL
:E1_0008: E( 1)=   -1.6850   E(BOTTOM)=   -1.738   E(TOP)=   -1.632
             APW+lo
:E1_0008: E( 1)=   -0.3432
             LOCAL ORBITAL

          ATOMIC SPHERE DEPENDENT PARAMETERS FOR ATOM  Na9       
:e__0009: OVERALL ENERGY PARAMETER IS   -0.3432
          OVERALL BASIS SET ON ATOM IS LAPW
:E0_0009: E( 0)=   -0.3432
             APW+lo
:E0_0009: E( 0)=   -3.7410   E(BOTTOM)=   -3.760   E(TOP)=   -3.722
             LOCAL ORBITAL
:E1_0009: E( 1)=   -1.6850   E(BOTTOM)=   -1.738   E(TOP)=   -1.632
             APW+lo
:E1_0009: E( 1)=   -0.3432
             LOCAL ORBITAL

          ATOMIC SPHERE DEPENDENT PARAMETERS FOR ATOM  Na10      
:e__0010: OVERALL ENERGY PARAMETER IS   -0.3432
          OVERALL BASIS SET ON ATOM IS LAPW
:E0_0010: E( 0)=   -0.3432
             APW+lo
:E0_0010: E( 0)=   -3.7405   E(BOTTOM)=   -3.759   E(TOP)=   -3.722
             LOCAL ORBITAL
:E1_0010: E( 1)=   -1.6850   E(BOTTOM)=   -1.738   E(TOP)=   -1.632
             APW+lo
:E1_0010: E( 1)=   -0.3432
             LOCAL ORBITAL

          ATOMIC SPHERE DEPENDENT PARAMETERS FOR ATOM  Na11      
:e__0011: OVERALL ENERGY PARAMETER IS   -0.3432
          OVERALL BASIS SET ON ATOM IS LAPW
:E0_0011: E( 0)=   -0.3432
             APW+lo
:E0_0011: E( 0)=   -3.7410   E(BOTTOM)=   -3.760   E(TOP)=   -3.722
             LOCAL ORBITAL
:E1_0011: E( 1)=   -1.6850   E(BOTTOM)=   -1.738   E(TOP)=   -1.632
             APW+lo
:E1_0011: E( 1)=   -0.3432
             LOCAL ORBITAL

          ATOMIC SPHERE DEPENDENT PARAMETERS FOR ATOM  Na12      
:e__0012: OVERALL ENERGY PARAMETER IS   -0.3432
          OVERALL BASIS SET ON ATOM IS LAPW
:E0_0012: E( 0)=   -0.3432
             APW+lo
:E0_0012: E( 0)=   -3.7410   E(BOTTOM)=   -3.760   E(TOP)=   -3.722
             LOCAL ORBITAL
:E1_0012: E( 1)=   -1.6850   E(BOTTOM)=   -1.738   E(TOP)=   -1.632
             APW+lo
:E1_0012: E( 1)=   -0.3432
             LOCAL ORBITAL

          ATOMIC SPHERE DEPENDENT PARAMETERS FOR ATOM  Cl13      
:e__0013: OVERALL ENERGY PARAMETER IS   -0.3432
          OVERALL BASIS SET ON ATOM IS LAPW
:E0_0013: E( 0)=   -1.0690   E(BOTTOM)=   -1.520   E(TOP)=   -0.618
             APW+lo
:E0_0013: E( 0)=   -0.3432
             LOCAL ORBITAL
:E1_0013: E( 1)=   -0.3432
             APW+lo

          ATOMIC SPHERE DEPENDENT PARAMETERS FOR ATOM  Cl14      
:e__0014: OVERALL ENERGY PARAMETER IS   -0.3432
          OVERALL BASIS SET ON ATOM IS LAPW
:E0_0014: E( 0)=   -1.0690   E(BOTTOM)=   -1.520   E(TOP)=   -0.618
             APW+lo
:E0_0014: E( 0)=   -0.3432
             LOCAL ORBITAL
:E1_0014: E( 1)=   -0.3432
             APW+lo

          ATOMIC SPHERE DEPENDENT PARAMETERS FOR ATOM  Cl15      
:e__0015: OVERALL ENERGY PARAMETER IS   -0.3432
          OVERALL BASIS SET ON ATOM IS LAPW
:E0_0015: E( 0)=   -1.0690   E(BOTTOM)=   -1.520   E(TOP)=   -0.618
             APW+lo
:E0_0015: E( 0)=   -0.3432
             LOCAL ORBITAL
:E1_0015: E( 1)=   -0.3432
             APW+lo

          ATOMIC SPHERE DEPENDENT PARAMETERS FOR ATOM  Cl16      
:e__0016: OVERALL ENERGY PARAMETER IS   -0.3432
          OVERALL BASIS SET ON ATOM IS LAPW
:E0_0016: E( 0)=   -1.0690   E(BOTTOM)=   -1.520   E(TOP)=   -0.618
             APW+lo
:E0_0016: E( 0)=   -0.3432
             LOCAL ORBITAL
:E1_0016: E( 1)=   -0.3432
             APW+lo

          ATOMIC SPHERE DEPENDENT PARAMETERS FOR ATOM  Cl17      
:e__0017: OVERALL ENERGY PARAMETER IS   -0.3432
          OVERALL BASIS SET ON ATOM IS LAPW
:E0_0017: E( 0)=   -1.0690   E(BOTTOM)=   -1.520   E(TOP)=   -0.618
             APW+lo
:E0_0017: E( 0)=   -0.3432
             LOCAL ORBITAL
:E1_0017: E( 1)=   -0.3432
             APW+lo

          ATOMIC SPHERE DEPENDENT PARAMETERS FOR ATOM  Cl18      
:e__0018: OVERALL ENERGY PARAMETER IS   -0.3432
          OVERALL BASIS SET ON ATOM IS LAPW
:E0_0018: E( 0)=   -1.0690   E(BOTTOM)=   -1.520   E(TOP)=   -0.618
             APW+lo
:E0_0018: E( 0)=   -0.3432
             LOCAL ORBITAL
:E1_0018: E( 1)=   -0.3432
             APW+lo

          ATOMIC SPHERE DEPENDENT PARAMETERS FOR ATOM  Cl19      
:e__0019: OVERALL ENERGY PARAMETER IS   -0.3432
          OVERALL BASIS SET ON ATOM IS LAPW
:E0_0019: E( 0)=   -1.0690   E(BOTTOM)=   -1.520   E(TOP)=   -0.618
             APW+lo
:E0_0019: E( 0)=   -0.3432
             LOCAL ORBITAL
:E1_0019: E( 1)=   -0.3432
             APW+lo

          ATOMIC SPHERE DEPENDENT PARAMETERS FOR ATOM  Cl20      
:e__0020: OVERALL ENERGY PARAMETER IS   -0.3432
          OVERALL BASIS SET ON ATOM IS LAPW
:E0_0020: E( 0)=   -1.0690   E(BOTTOM)=   -1.520   E(TOP)=   -0.618
             APW+lo
:E0_0020: E( 0)=   -0.3432
             LOCAL ORBITAL
:E1_0020: E( 1)=   -0.3432
             APW+lo

          ATOMIC SPHERE DEPENDENT PARAMETERS FOR ATOM  Cl21      
:e__0021: OVERALL ENERGY PARAMETER IS   -0.3432
          OVERALL BASIS SET ON ATOM IS LAPW
:E0_0021: E( 0)=   -1.0690   E(BOTTOM)=   -1.520   E(TOP)=   -0.618
             APW+lo
:E0_0021: E( 0)=   -0.3432
             LOCAL ORBITAL
:E1_0021: E( 1)=   -0.3432
             APW+lo

          ATOMIC SPHERE DEPENDENT PARAMETERS FOR ATOM  Cl22      
:e__0022: OVERALL ENERGY PARAMETER IS   -0.3432
          OVERALL BASIS SET ON ATOM IS LAPW
:E0_0022: E( 0)=   -1.0690   E(BOTTOM)=   -1.520   E(TOP)=   -0.618
             APW+lo
:E0_0022: E( 0)=   -0.3432
             LOCAL ORBITAL
:E1_0022: E( 1)=   -0.3432
             APW+lo

          ATOMIC SPHERE DEPENDENT PARAMETERS FOR ATOM  Cl23      
:e__0023: OVERALL ENERGY PARAMETER IS   -0.3432
          OVERALL BASIS SET ON ATOM IS LAPW
:E0_0023: E( 0)=   -1.0690   E(BOTTOM)=   -1.520   E(TOP)=   -0.618
             APW+lo
:E0_0023: E( 0)=   -0.3432
             LOCAL ORBITAL
:E1_0023: E( 1)=   -0.3432
             APW+lo

          ATOMIC SPHERE DEPENDENT PARAMETERS FOR ATOM  Cl24      
:e__0024: OVERALL ENERGY PARAMETER IS   -0.3432
          OVERALL BASIS SET ON ATOM IS LAPW
:E0_0024: E( 0)=   -1.0690   E(BOTTOM)=   -1.520   E(TOP)=   -0.618
             APW+lo
:E0_0024: E( 0)=   -0.3432
             LOCAL ORBITAL
:E1_0024: E( 1)=   -0.3432
             APW+lo

       K=   0.25000   0.25000   0.25000            1
:RKM  : MATRIX SIZE 4099LOs: 416  RKM= 6.99  WEIGHT= 8.00  PGR:    
       EIGENVALUES ARE:
:EIG00001:      -3.7372871   -3.7372757   -3.7372751   -3.7372668   -3.7371833
:EIG00006:      -3.7371679   -3.7371671   -3.7371569   -3.7371560   -3.7371441
:EIG00011:      -3.7371429   -3.7371425   -3.7371379   -3.7371372   -3.7371369
:EIG00016:      -3.7371353   -3.7371313   -3.7371306   -3.7371294   -3.7371288
:EIG00021:      -3.7371276   -3.7371270   -3.7371206   -3.7371200   -3.7371035
:EIG00026:      -3.7371002   -3.7370996   -3.7370936   -3.7369702   -3.7369624
:EIG00031:      -3.7369619   -3.7369545   -1.6743806   -1.6743732   -1.6743696
:EIG00036:      -1.6742397   -1.6740455   -1.6740345   -1.6740170   -1.6740095
:EIG00041:      -1.6740085   -1.6740040   -1.6739961   -1.6739886   -1.6739699
:EIG00046:      -1.6739010   -1.6738701   -1.6738631   -1.6738326   -1.6738243
 
:EIG00051:      -1.6737990   -1.6737932   -1.6737922   -1.6737724   -1.6737607
:EIG00056:      -1.6737539   -1.6737438   -1.6737360   -1.6737331   -1.6737190
:EIG00061:      -1.6733994   -1.6733975   -1.6733904   -1.6733851   -1.6733831
:EIG00066:      -1.6733819   -1.6733783   -1.6733725   -1.6733624   -1.6733172
:EIG00071:      -1.6733131   -1.6733002   -1.6732340   -1.6732274   -1.6732212
:EIG00076:      -1.6731481   -1.6731331   -1.6731309   -1.6731257   -1.6731145
:EIG00081:      -1.6731086   -1.6731076   -1.6731009   -1.6730942   -1.6730676
:EIG00086:      -1.6730668   -1.6730597   -1.6730513   -1.6730420   -1.6730196
:EIG00091:      -1.6729951   -1.6729887   -1.6729826   -1.6729581   -1.6729488
:EIG00096:      -1.6729340   -1.6729282   -1.6729192   -1.6729105   -1.6729055
 
:EIG00101:      -1.6728821   -1.6728663   -1.6728662   -1.6728539   -1.6728426
:EIG00106:      -1.6728407   -1.6728331   -1.6728314   -1.6728253   -1.6728184
:EIG00111:      -1.6728016   -1.6727805   -1.6727785   -1.6727734   -1.6727598
:EIG00116:      -1.6727467   -1.6727425   -1.6727233   -1.6727200   -1.6727136
:EIG00121:      -1.6726872   -1.6726776   -1.6726660   -1.6726412   -1.6726329
:EIG00126:      -1.6725912   -1.6725881   -1.6725792   -1.0635806   -1.0565635
:EIG00131:      -1.0565018   -1.0564472   -1.0511820   -1.0511205   -1.0510659
:EIG00136:      -1.0475723   -1.0472764   -1.0472186   -1.0471629   -1.0445830
:EIG00141:      -1.0444527   -1.0444525   -1.0444513   -1.0444495   -1.0443541
:EIG00146:      -1.0436205   -1.0436153   -1.0436068   -1.0417039   -1.0416339
 
:EIG00151:      -1.0415902   -1.0412362   -1.0412274   -1.0412112   -1.0405354
:EIG00156:      -1.0404459   -1.0404459   -1.0404454   -1.0404439   -1.0402997
:EIG00161:      -0.2677514   -0.2677491   -0.2677452   -0.2600573   -0.2512547
:EIG00166:      -0.2512532   -0.2512514   -0.2491956   -0.2491308   -0.2490702
:EIG00171:      -0.2484860   -0.2484595   -0.2484319   -0.2484316   -0.2483985
:EIG00176:      -0.2483813   -0.2405988   -0.2405978   -0.2405547   -0.2405542
:EIG00181:      -0.2405128   -0.2405111   -0.2379178   -0.2378773   -0.2378355
:EIG00186:      -0.2334470   -0.2334425   -0.2334372   -0.2107894   -0.2107855
:EIG00191:      -0.2107632   -0.2107624   -0.2107403   -0.2107373   -0.2067276
:EIG00196:      -0.2067070   -0.2066857   -0.2053034   -0.2052850   -0.2052667
 
:EIG00201:      -0.1914429   -0.1914401   -0.1914381   -0.1884253   -0.1884078
:EIG00206:      -0.1883793   -0.1883788   -0.1883502   -0.1883369   -0.1813536
:EIG00211:      -0.1813381   -0.1813041   -0.1813032   -0.1812676   -0.1812562
:EIG00216:      -0.1791604   -0.1791588   -0.1791581   -0.1749126   -0.1749109
:EIG00221:      -0.1749100   -0.1717399   -0.1717365   -0.1717342   -0.1693697
:EIG00226:      -0.1693423   -0.1693084   -0.1678528   -0.1678124   -0.1677766
:EIG00231:      -0.1667643   -0.1667291   -0.1667026   -0.1664285   -0.1654838
:EIG00236:      -0.1654231   -0.1654104   -0.1654095   -0.1653964   -0.1653243
:EIG00241:      -0.1623681   -0.1623675   -0.1623672   -0.1561347   -0.1561339
:EIG00246:      -0.1545487   -0.1545176   -0.1544891   -0.1538597   -0.1537984
 
:EIG00251:      -0.1537339   -0.1516913   -0.1516591   -0.1516311   -0.1432242
:EIG00256:      -0.1432239    0.2633356    0.3358610    0.3358952    0.3359298
:EIG00261:       0.3814215    0.3819038    0.3819377    0.3819743    0.4178994
:EIG00266:       0.4179082    0.4179116    0.4186866    0.4187180    0.4187524
:EIG00271:       0.4272771    0.4272792    0.4273036    0.4526028    0.4526046
:EIG00276:       0.4526417    0.4526478    0.4526844    0.4526864    0.4770483
:EIG00281:       0.4770528    0.4770583    0.4775506    0.4775892    0.4776353
:EIG00286:       0.4836159    0.4836487    0.4836661    0.4836766    0.4837023
:EIG00291:       0.4837139    0.5115175    0.5115528    0.5115920    0.5289001
:EIG00296:       0.5289206    0.5289571    0.5289578    0.5289962    0.5290098
 
:EIG00301:       0.5470272    0.5470461    0.5470645    0.5567182    0.5567460
:EIG00306:       0.5567728    0.5567765    0.5568059    0.5568228    0.5727507
:EIG00311:       0.5727599    0.5727739    0.5753389    0.5753744    0.5754094
:EIG00316:       0.5849018    0.5849164    0.5849438    0.5849461    0.5849743
:EIG00321:       0.5849981    0.5938325    0.5938382    0.5938643    0.5958089
:EIG00326:       0.5958144    0.5958540    0.5958544    0.5958929    0.5959008
:EIG00331:       0.6022437    0.6022747    0.6023058    0.6045027    0.6123168
:EIG00336:       0.6123289    0.6123427    0.6330845    0.6330934    0.6330935
:EIG00341:       0.6333840    0.6508351    0.6508386    0.6508421    0.6512041
:EIG00346:       0.6512261    0.6512515    0.6694191    0.6694209    0.6793131
 
:EIG00351:       0.6793401    0.6793705    0.6829014    0.6829034    0.6829211
:EIG00356:       0.6864345    0.6864381    0.7026399    0.7026798    0.7027170
:EIG00361:       0.7173898    0.7174374    0.7174816    0.7269405    0.7269709
:EIG00366:       0.7269871    0.7269893    0.7270087    0.7270237    0.7292439
:EIG00371:       0.7292655    0.7292842    0.7378906    0.7379002    0.7379051
:EIG00376:       0.7379078    0.7379223    0.7379350    0.7613310    0.7613670
:EIG00381:       0.7614044    0.7764138    0.7764394    0.7764605    0.7941798
:EIG00386:       0.7942110    0.7942378    0.8081002    0.8081023    0.8325868
:EIG00391:       0.8325982    0.8326101    0.8460889    0.8460956    0.8461075
:EIG00396:       0.8607593    0.8607902    0.8608097    0.8608100    0.8608395
 
:EIG00401:       0.8608763    0.8626361    0.8626590    0.8626777    0.8924830
:EIG00406:       0.8924949    0.8925200    0.8929087    0.8929192    0.8929334
:EIG00411:       0.9049505    0.9049512    0.9049682    0.9049714    0.9049850
:EIG00416:       0.9049902    0.9231260    0.9231278    0.9272131    0.9272155
:EIG00421:       0.9272217    0.9273824    0.9274308    0.9274726    0.9396391
:EIG00426:       0.9396411    0.9396593    0.9530239    0.9530671    0.9531089
:EIG00431:       0.9582314    1.0124909    1.0199003    1.0199184    1.0199444
:EIG00436:       1.0199469    1.0199601    1.0200011    1.0320458    1.0320485
:EIG00441:       1.0320687    1.0320691    1.0320795    1.0321128    1.0352883
:EIG00446:       1.0352930    1.0352986    1.0364534    1.0364588    1.0364650
 
:EIG00451:       1.0373515    1.0373580    1.0373673    1.0555355    1.0556079
:EIG00456:       1.0556808    1.0612696    1.0612738    1.0612950    1.0612978
:EIG00461:       1.0613172    1.0613230    1.0701208    1.0701230    1.0701418
:EIG00466:       1.0701427    1.0701616    1.0701632    1.0804085    1.0804794
:EIG00471:       1.0805502    1.0931044    1.0931051    1.0931090    1.0951299
:EIG00476:       1.0999095    1.0999099    1.0999154    1.1062934    1.1063036
:EIG00481:       1.1063063    1.1287329    1.1287515    1.1287735    1.1318693
:EIG00486:       1.1318820    1.1319029    1.1494102    1.1494613    1.1495065
:EIG00491:       1.1495109    1.1495427    1.1496054    1.1648039    1.1648059
:EIG00496:       1.1769026    1.1769187    1.1769365    1.1816467    1.1816556
 
:EIG00501:       1.1816879    1.1816887    1.1817243    1.1817278    1.2000435
:EIG00506:       1.2000480    1.2000523    1.2051322    1.2051605    1.2051870
:EIG00511:       1.2150301    1.2161129    1.2161391    1.2161666    1.2182323
:EIG00516:       1.2182468    1.2182593    1.2186006    1.2186064    1.2186215
:EIG00521:       1.2397469    1.2397817    1.2398169    1.2454199    1.2454480
:EIG00526:       1.2454765    1.2484359    1.2484554    1.2484791    1.2614964
:EIG00531:       1.2615132    1.2615558    1.2615568    1.2615984    1.2616092
:EIG00536:       1.2671399    1.2671460    1.2671669    1.2671687    1.2671912
:EIG00541:       1.2671914    1.2694462    1.2694486    1.2737322    1.2737560
:EIG00546:       1.2737822    1.2764599    1.2765086    1.2765539    1.2867778
 
:EIG00551:       1.2867818    1.2867912    1.3000413    1.3000635    1.3000884
:EIG00556:       1.3375929    1.3376527    1.3376892    1.3376920    1.3377179
:EIG00561:       1.3377953    1.3435179    1.3435278    1.3435769    1.3435777
:EIG00566:       1.3436292    1.3436372    1.3513819    1.3514191    1.3514524
:EIG00571:       1.3559586    1.3559947    1.3560307    1.3747957    1.3748206
:EIG00576:       1.3748485    1.4031716    1.4031734    1.4032011    1.4032027
:EIG00581:       1.4032333    1.4032407    1.4034071    1.4034490    1.4035040
:EIG00586:       1.4096639    1.4097066    1.4097507    1.4157235    1.4157471
:EIG00591:       1.4157711    1.4225425    1.4225489    1.4225699    1.4388648
:EIG00596:       1.4388948    1.4389198    1.4544899    1.4545240    1.4545257
 
:EIG00601:       1.4580258    1.4580403    1.4580544    1.4636845    1.4636942
:EIG00606:       1.4637279    1.4637291    1.4637488    1.4637655    1.4656409
:EIG00611:       1.4656509    1.4656563    1.4727393    1.4727404    1.4757219
:EIG00616:       1.4963965    1.4964049    1.4964074    1.5147612    1.5147846
:EIG00621:       1.5148030    1.5179134    1.5179424    1.5179583    1.5184269
:EIG00626:       1.5184432    1.5184636    1.5365822    1.5365900    1.5366198
:EIG00631:       1.5366364    1.5366838    1.5366926    1.5596936    1.5597122
:EIG00636:       1.5597496    1.5597515    1.5597798    1.5598075    1.5662552
:EIG00641:       1.5662598    1.5662761    1.5985888    1.6062189    1.6062397
:EIG00646:       1.6062676    1.6198300    1.6198487    1.6198845    1.6198848
 
:EIG00651:       1.6199151    1.6199237    1.6319219    1.6319758    1.6320046
:EIG00656:       1.6343703    1.6344142    1.6344564    1.6442762    1.6443485
:EIG00661:       1.6443818    1.6443899    1.6444078    1.6444858    1.6484279
:EIG00666:       1.6484347    1.6484774    1.6502113    1.6502127    1.6502242
:EIG00671:       1.6703476    1.6703543    1.6703651    1.6726273    1.6726784
:EIG00676:       1.6726953    1.6727027    1.6727197    1.6727779    1.6894655
:EIG00681:       1.6998906    1.6998943    1.7093196    1.7093322    1.7093780
:EIG00686:       1.7093809    1.7094257    1.7094438    1.7109373    1.7109522
:EIG00691:       1.7109533    1.7142021    1.7142181    1.7142743    1.7206338
:EIG00696:       1.7206679    1.7207013    1.7399244    1.7399253    1.7399270
 
:EIG00701:       1.7659875    1.7660130    1.7660439    1.7742210    1.7742892
:EIG00706:       1.7743750    1.8064709    1.8064827    1.8065090    1.8065108
:EIG00711:       1.8065383    1.8065399    1.8101071    1.8101397    1.8101653
:EIG00716:       1.8154863    1.8154958    1.8155124    1.8161128    1.8161468
:EIG00721:       1.8161886    1.8229827    1.8230026    1.8230297    1.8245446
:EIG00726:       1.8246525    1.8247596    1.8287671    1.8287718    1.8288010
:EIG00731:       1.8288097    1.8288305    1.8288503    1.8385692    1.8385719
:EIG00736:       1.8422773    1.8422898    1.8422984    1.8555801    1.8555885
:EIG00741:       1.8556292    1.8556299    1.8556699    1.8556947    1.8671202
:EIG00746:       1.8671496    1.8671617    1.8895509    1.8895618    1.8895860
 
:EIG00751:       1.8952065    1.8952683    1.8952867    1.8952887    1.8953062
:EIG00756:       1.8953692    1.9121043    1.9121562    1.9122015    1.9219752
:EIG00761:       1.9219871    1.9220111    1.9230432    1.9230714    1.9231036
:EIG00766:       1.9244170    1.9244186    1.9244220    1.9323708    1.9323902
:EIG00771:       1.9324130    1.9341803    1.9341851    1.9355263    1.9356020
:EIG00776:       1.9356147    1.9356225    1.9356305    1.9357200    1.9548835
:EIG00781:       1.9549046    1.9549533    1.9549557    1.9550010    1.9550254
:EIG00786:       1.9651859    1.9651914    1.9652272    1.9652384    1.9652676
:EIG00791:       1.9652828    1.9718043    1.9903604    1.9903763    1.9903920
:EIG00796:       1.9959506    1.9959776    1.9960102    1.9975172    1.9975226
 
:EIG00801:       1.9975355    2.0319369    2.0319381    2.0319428    2.0511389
:EIG00806:       2.0660478    2.0660488    2.0660642    2.0732883    2.0733346
:EIG00811:       2.0733730    2.0733787    2.0734300    2.0734581    2.0735418
:EIG00816:       2.0735493    2.0735745    2.0778408    2.0778486    2.0778597
:EIG00821:       2.0797753    2.0798267    2.0798728    2.0812144    2.0812617
:EIG00826:       2.0812945    2.0910762    2.0910822    2.0911269    2.0911414
:EIG00831:       2.0911833    2.0912022    2.1074488    2.1074598    2.1074773
:EIG00836:       2.1125011    2.1125020    2.1125064    2.1144387    2.1203417
:EIG00841:       2.1203502    2.1204291    2.1204305    2.1205244    2.1205291
:EIG00846:       2.1219541    2.1219808    2.1220155    2.1343807    2.1343841
 
:EIG00851:       2.1599732    2.1600114    2.1600215    2.1600260    2.1600295
:EIG00856:       2.1600809    2.1623314    2.1623850    2.1624541    2.1726830
:EIG00861:       2.1726854    2.1727080    2.1727874    2.1728029    2.1817556
:EIG00866:       2.1817644    2.1817747    2.1919968    2.1920114    2.1920298
:EIG00871:       2.1920317    2.1920500    2.1920573    2.2029723    2.2030009
:EIG00876:       2.2030306    2.2053789    2.2054343    2.2054979    2.2203301
:EIG00881:       2.2203385    2.2203470    2.2335067    2.2335093    2.2335094
:EIG00886:       2.2407804    2.2408400    2.2408962    2.2409003    2.2409556
:EIG00891:       2.2410142    2.2482159    2.2482614    2.2483089    2.2602023
:EIG00896:       2.2602344    2.2602691    2.2679113    2.2679492    2.2679986
 
:EIG00901:       2.2730437    2.2730455    2.2731981    2.2732460    2.2732993
:EIG00906:       2.2825861    2.2826085    2.2826288    2.2910190    2.2966144
:EIG00911:       2.2966323    2.2966498    2.2966504    2.2966698    2.2966939
:EIG00916:       2.3001213    2.3001697    2.3001763    2.3001787    2.3001835
:EIG00921:       2.3002462    2.3094677    2.3094838    2.3094953    2.3274053
:EIG00926:       2.3274839    2.3275671    2.3439165    2.3440046    2.3440964
:EIG00931:       2.3707936    2.3707965    2.3708009    2.3756475    2.3756827
:EIG00936:       2.3757206    2.3775910    2.3787467    2.3787753    2.3787909
:EIG00941:       2.3847954    2.3847994    2.3848018    2.3871061    2.3871100
:EIG00946:       2.3871137    2.3971727    2.3972475    2.3973226    2.4001660
 
:EIG00951:       2.4001752    2.4001837    2.4052225    2.4052670    2.4052997
:EIG00956:       2.4053022    2.4053367    2.4053786    2.4149861    2.4150140
:EIG00961:       2.4150585    2.4219268    2.4219292    2.4237521    2.4237923
:EIG00966:       2.4238314    2.4312263    2.4313088    2.4313306    2.4313415
:EIG00971:       2.4313547    2.4314536    2.4375781    2.4376676    2.4376819
:EIG00976:       2.4376856    2.4376918    2.4377909    2.4383075    2.4383434
:EIG00981:       2.4384012    2.4694100    2.4694369    2.4695006    2.4695023
:EIG00986:       2.4695639    2.4695913    2.4829185    2.4829520    2.4829905
:EIG00991:       2.4854617    2.4855119    2.4855312    2.4855370    2.4855596
:EIG00996:       2.4856087    2.4888397    2.4888405    2.4888753    2.4888766
 
:EIG01001:       2.4889054    2.4889189    2.4907390    2.4958956    2.4958967
:EIG01006:       2.4959043    2.4994028    2.4994188    2.4994189
       ********************************************************

:KPT   :      NUMBER OF K-POINTS:     1
:GMA  : POTENTIAL AND CHARGE CUT-OFF  12.00 Ry**.5
       Insulator, EF-inconsistency corrected
:GAP  :    0.4066 Ry =     5.529 eV   (provided you have a proper k-mesh)
         Bandranges (emin - emax) and occupancy:
:BAN00246: 246   -0.154549   -0.154549  2.00000000
:BAN00247: 247   -0.154518   -0.154518  2.00000000
:BAN00248: 248   -0.154489   -0.154489  2.00000000
:BAN00249: 249   -0.153860   -0.153860  2.00000000
:BAN00250: 250   -0.153798   -0.153798  2.00000000
:BAN00251: 251   -0.153734   -0.153734  2.00000000
:BAN00252: 252   -0.151691   -0.151691  2.00000000
:BAN00253: 253   -0.151659   -0.151659  2.00000000
:BAN00254: 254   -0.151631   -0.151631  2.00000000
:BAN00255: 255   -0.143224   -0.143224  2.00000000
:BAN00256: 256   -0.143224   -0.143224  2.00000000
:BAN00257: 257    0.263336    0.263336  0.00000000
:BAN00258: 258    0.335861    0.335861  0.00000000
:BAN00259: 259    0.335895    0.335895  0.00000000
:BAN00260: 260    0.335930    0.335930  0.00000000
:BAN00261: 261    0.381422    0.381422  0.00000000
        Energy to separate low and high energystates:   -0.31775


:NOE  : NUMBER OF ELECTRONS          = 512.000

:FER  : F E R M I - ENERGY(TETRAH.M.)=  -0.14322




:POS001: ATOM   -1 POSITION = 0.00093 0.00000 0.00000  MULTIPLICITY = 1  ZZ= 11.000  Na1       

       LMMAX 10
       LM=   0 0  1 0  2 0  3 0  4 0  4 4  5 0  5 4  6 0  6 4

:CHA001: TOTAL VALENCE CHARGE INSIDE SPHERE   1 =     8.164119
:PCS001: PARTIAL CHARGES SPHERE =  1 S,P,D,F,PZ,PXY,,D-Z2,D-XY,D-X2Y2,D-XZ,YZ 
:QTL001: 2.0683 6.0468 0.0381 0.0086 2.0156 4.0312 0.0000 0.0153 0.0025 0.0153 0.0050 0.0000
        Q-s-low E-s-low   Q-p-low E-p-low   Q-d-low E-d-low   Q-f-low E-f-low
:EPL001:  2.0019 -3.7317    5.9709 -1.6724    0.0030 -1.0434    0.0009 -1.0482
        Q-s-hi  E-s-hi    Q-p-hi  E-p-hi    Q-d-hi  E-d-hi    Q-f-hi  E-f-hi 
:EPH001:  0.0665 -0.2368    0.0759 -0.2038    0.0350 -0.1847    0.0077 -0.1811
:VZZ001: EFG INSIDE SPHERE   1 =    -0.000294      UP TO R =   2.50000




:POS002: ATOM   -2 POSITION = 0.50000 0.00000 0.00000  MULTIPLICITY = 1  ZZ= 11.000  Na2       

       LMMAX 10
       LM=   0 0  1 0  2 0  3 0  4 0  4 4  5 0  5 4  6 0  6 4

:CHA002: TOTAL VALENCE CHARGE INSIDE SPHERE   2 =     8.164089
:PCS002: PARTIAL CHARGES SPHERE =  2 S,P,D,F,PZ,PXY,,D-Z2,D-XY,D-X2Y2,D-XZ,YZ 
:QTL002: 2.0683 6.0468 0.0381 0.0086 2.0156 4.0312 0.0000 0.0153 0.0025 0.0153 0.0050 0.0000
        Q-s-low E-s-low   Q-p-low E-p-low   Q-d-low E-d-low   Q-f-low E-f-low
:EPL002:  2.0019 -3.7317    5.9709 -1.6724    0.0030 -1.0434    0.0009 -1.0482
        Q-s-hi  E-s-hi    Q-p-hi  E-p-hi    Q-d-hi  E-d-hi    Q-f-hi  E-f-hi 
:EPH002:  0.0665 -0.2368    0.0759 -0.2038    0.0350 -0.1847    0.0077 -0.1811
:VZZ002: EFG INSIDE SPHERE   2 =     0.000193      UP TO R =   2.50000




:POS003: ATOM   -3 POSITION = 0.00000 0.50000 0.00000  MULTIPLICITY = 2  ZZ= 11.000  Na3       

       LMMAX 16
       LM=   0 0  1 0  2 0  2 2  3 0  3 2  4 0  4 2  4 4  5 0  5 2  5 4  6 0  6 2  6 4  6 6

:CHA003: TOTAL VALENCE CHARGE INSIDE SPHERE   3 =     8.164089
:PCS003: PARTIAL CHARGES SPHERE =  3 S,P,D,F,PX,PY,PZ,D-Z2,D-X2Y2,D-XY,D-XZ,D-YZ 
:QTL003: 2.0683 6.0468 0.0381 0.0086 2.0156 2.0156 2.0156 0.0153 0.0153 0.0025 0.0025 0.0025
        Q-s-low E-s-low   Q-p-low E-p-low   Q-d-low E-d-low   Q-f-low E-f-low
:EPL003:  2.0019 -3.7317    5.9709 -1.6724    0.0030 -1.0434    0.0009 -1.0482
        Q-s-hi  E-s-hi    Q-p-hi  E-p-hi    Q-d-hi  E-d-hi    Q-f-hi  E-f-hi 
:EPH003:  0.0665 -0.2368    0.0759 -0.2038    0.0350 -0.1847    0.0077 -0.1811

                      VXX         VYY         VZZ       UP TO R

:VZZ003:            -0.00009    -0.00011     0.00020       2.500




:POS004: ATOM   -4 POSITION = 0.50000 0.50000 0.00000  MULTIPLICITY = 2  ZZ= 11.000  Na4       

       LMMAX 16
       LM=   0 0  1 0  2 0  2 2  3 0  3 2  4 0  4 2  4 4  5 0  5 2  5 4  6 0  6 2  6 4  6 6

:CHA004: TOTAL VALENCE CHARGE INSIDE SPHERE   4 =     8.164089
:PCS004: PARTIAL CHARGES SPHERE =  4 S,P,D,F,PX,PY,PZ,D-Z2,D-X2Y2,D-XY,D-XZ,D-YZ 
:QTL004: 2.0683 6.0468 0.0381 0.0086 2.0156 2.0156 2.0156 0.0153 0.0153 0.0025 0.0025 0.0025
        Q-s-low E-s-low   Q-p-low E-p-low   Q-d-low E-d-low   Q-f-low E-f-low
:EPL004:  2.0019 -3.7317    5.9709 -1.6724    0.0030 -1.0434    0.0009 -1.0482
        Q-s-hi  E-s-hi    Q-p-hi  E-p-hi    Q-d-hi  E-d-hi    Q-f-hi  E-f-hi 
:EPH004:  0.0665 -0.2368    0.0759 -0.2038    0.0350 -0.1847    0.0077 -0.1811

                      VXX         VYY         VZZ       UP TO R

:VZZ004:            -0.00010    -0.00010     0.00019       2.500




:POS005: ATOM   -5 POSITION = 0.00000 0.50000 0.50000  MULTIPLICITY = 1  ZZ= 11.000  Na5       

       LMMAX 10
       LM=   0 0  1 0  2 0  3 0  4 0  4 4  5 0  5 4  6 0  6 4

:CHA005: TOTAL VALENCE CHARGE INSIDE SPHERE   5 =     8.164089
:PCS005: PARTIAL CHARGES SPHERE =  5 S,P,D,F,PZ,PXY,,D-Z2,D-XY,D-X2Y2,D-XZ,YZ 
:QTL005: 2.0683 6.0468 0.0381 0.0086 2.0156 4.0312 0.0000 0.0153 0.0025 0.0153 0.0050 0.0000
        Q-s-low E-s-low   Q-p-low E-p-low   Q-d-low E-d-low   Q-f-low E-f-low
:EPL005:  2.0019 -3.7317    5.9709 -1.6724    0.0030 -1.0434    0.0009 -1.0482
        Q-s-hi  E-s-hi    Q-p-hi  E-p-hi    Q-d-hi  E-d-hi    Q-f-hi  E-f-hi 
:EPH005:  0.0665 -0.2368    0.0759 -0.2038    0.0350 -0.1847    0.0077 -0.1811
:VZZ005: EFG INSIDE SPHERE   5 =     0.000194      UP TO R =   2.50000




:POS006: ATOM   -6 POSITION = 0.50000 0.50000 0.50000  MULTIPLICITY = 1  ZZ= 11.000  Na6       

       LMMAX 10
       LM=   0 0  1 0  2 0  3 0  4 0  4 4  5 0  5 4  6 0  6 4

:CHA006: TOTAL VALENCE CHARGE INSIDE SPHERE   6 =     8.164089
:PCS006: PARTIAL CHARGES SPHERE =  6 S,P,D,F,PZ,PXY,,D-Z2,D-XY,D-X2Y2,D-XZ,YZ 
:QTL006: 2.0683 6.0468 0.0381 0.0086 2.0156 4.0312 0.0000 0.0153 0.0025 0.0153 0.0050 0.0000
        Q-s-low E-s-low   Q-p-low E-p-low   Q-d-low E-d-low   Q-f-low E-f-low
:EPL006:  2.0019 -3.7317    5.9709 -1.6724    0.0030 -1.0434    0.0009 -1.0482
        Q-s-hi  E-s-hi    Q-p-hi  E-p-hi    Q-d-hi  E-d-hi    Q-f-hi  E-f-hi 
:EPH006:  0.0665 -0.2368    0.0759 -0.2038    0.0350 -0.1847    0.0077 -0.1811
:VZZ006: EFG INSIDE SPHERE   6 =     0.000193      UP TO R =   2.50000




:POS007: ATOM   -7 POSITION = 0.00000 0.25000 0.25000  MULTIPLICITY = 4  ZZ= 11.000  Na7       

       LMMAX 28
       LM=   0 0  1 1 -1 1  2 0  2 2 -2 2  3 1 -3 1  3 3 -3 3  4 0  4 2 -4 2  4 4 -4 4  5 1 -5 1
         5 3 -5 3  5 5 -5 5  6 0  6 2 -6 2  6 4 -6 4  6 6 -6 6

:CHA007: TOTAL VALENCE CHARGE INSIDE SPHERE   7 =     8.164078
:PCS007: PARTIAL CHARGES SPHERE =  7 S,P,D,F,PX,PY,PZ,D-Z2,D-X2Y2,D-XY,D-XZ,D-YZ 
:QTL007: 2.0683 6.0467 0.0381 0.0086 2.0156 2.0156 2.0156 0.0057 0.0121 0.0025 0.0025 0.0153
        Q-s-low E-s-low   Q-p-low E-p-low   Q-d-low E-d-low   Q-f-low E-f-low
:EPL007:  2.0019 -3.7317    5.9709 -1.6724    0.0030 -1.0434    0.0009 -1.0482
        Q-s-hi  E-s-hi    Q-p-hi  E-p-hi    Q-d-hi  E-d-hi    Q-f-hi  E-f-hi 
:EPH007:  0.0664 -0.2368    0.0759 -0.2038    0.0350 -0.1847    0.0077 -0.1811

                      QXX         QXY         QYY         QZZ       UP TO R

:VZZ007:             0.00018    -0.00012    -0.00017    -0.00002       2.500




:POS008: ATOM   -8 POSITION = 0.50000 0.25000 0.25000  MULTIPLICITY = 4  ZZ= 11.000  Na8       

       LMMAX 28
       LM=   0 0  1 1 -1 1  2 0  2 2 -2 2  3 1 -3 1  3 3 -3 3  4 0  4 2 -4 2  4 4 -4 4  5 1 -5 1
         5 3 -5 3  5 5 -5 5  6 0  6 2 -6 2  6 4 -6 4  6 6 -6 6

:CHA008: TOTAL VALENCE CHARGE INSIDE SPHERE   8 =     8.164078
:PCS008: PARTIAL CHARGES SPHERE =  8 S,P,D,F,PX,PY,PZ,D-Z2,D-X2Y2,D-XY,D-XZ,D-YZ 
:QTL008: 2.0683 6.0467 0.0381 0.0086 2.0156 2.0156 2.0156 0.0057 0.0121 0.0025 0.0025 0.0153
        Q-s-low E-s-low   Q-p-low E-p-low   Q-d-low E-d-low   Q-f-low E-f-low
:EPL008:  2.0019 -3.7317    5.9709 -1.6724    0.0030 -1.0434    0.0009 -1.0482
        Q-s-hi  E-s-hi    Q-p-hi  E-p-hi    Q-d-hi  E-d-hi    Q-f-hi  E-f-hi 
:EPH008:  0.0664 -0.2368    0.0759 -0.2038    0.0350 -0.1847    0.0077 -0.1811

                      QXX         QXY         QYY         QZZ       UP TO R

:VZZ008:             0.00018     0.00002    -0.00016    -0.00002       2.500




:POS009: ATOM   -9 POSITION = 0.25000 0.00000 0.25000  MULTIPLICITY = 4  ZZ= 11.000  Na9       

       LMMAX 28
       LM=   0 0  1 1 -1 1  2 0  2 2 -2 2  3 1 -3 1  3 3 -3 3  4 0  4 2 -4 2  4 4 -4 4  5 1 -5 1
         5 3 -5 3  5 5 -5 5  6 0  6 2 -6 2  6 4 -6 4  6 6 -6 6

:CHA009: TOTAL VALENCE CHARGE INSIDE SPHERE   9 =     8.164112
:PCS009: PARTIAL CHARGES SPHERE =  9 S,P,D,F,PX,PY,PZ,D-Z2,D-X2Y2,D-XY,D-XZ,D-YZ 
:QTL009: 2.0683 6.0468 0.0381 0.0086 2.0156 2.0156 2.0156 0.0153 0.0153 0.0025 0.0025 0.0025
        Q-s-low E-s-low   Q-p-low E-p-low   Q-d-low E-d-low   Q-f-low E-f-low
:EPL009:  2.0019 -3.7319    5.9709 -1.6725    0.0030 -1.0435    0.0009 -1.0483
        Q-s-hi  E-s-hi    Q-p-hi  E-p-hi    Q-d-hi  E-d-hi    Q-f-hi  E-f-hi 
:EPH009:  0.0665 -0.2369    0.0759 -0.2039    0.0350 -0.1849    0.0077 -0.1812

                      QXX         QXY         QYY         QZZ       UP TO R

:VZZ009:             0.00125     0.00021    -0.00102    -0.00023       2.500




:POS010: ATOM  -10 POSITION = 0.75000 0.00000 0.25000  MULTIPLICITY = 4  ZZ= 11.000  Na10      

       LMMAX 28
       LM=   0 0  1 1 -1 1  2 0  2 2 -2 2  3 1 -3 1  3 3 -3 3  4 0  4 2 -4 2  4 4 -4 4  5 1 -5 1
         5 3 -5 3  5 5 -5 5  6 0  6 2 -6 2  6 4 -6 4  6 6 -6 6

:CHA010: TOTAL VALENCE CHARGE INSIDE SPHERE  10 =     8.164066
:PCS010: PARTIAL CHARGES SPHERE = 10 S,P,D,F,PX,PY,PZ,D-Z2,D-X2Y2,D-XY,D-XZ,D-YZ 
:QTL010: 2.0683 6.0467 0.0381 0.0086 2.0156 2.0156 2.0156 0.0153 0.0153 0.0025 0.0025 0.0025
        Q-s-low E-s-low   Q-p-low E-p-low   Q-d-low E-d-low   Q-f-low E-f-low
:EPL010:  2.0019 -3.7316    5.9709 -1.6722    0.0030 -1.0432    0.0009 -1.0481
        Q-s-hi  E-s-hi    Q-p-hi  E-p-hi    Q-d-hi  E-d-hi    Q-f-hi  E-f-hi 
:EPH010:  0.0664 -0.2367    0.0759 -0.2036    0.0350 -0.1846    0.0077 -0.1809

                      QXX         QXY         QYY         QZZ       UP TO R

:VZZ010:            -0.00142     0.00021     0.00080     0.00062       2.500




:POS011: ATOM  -11 POSITION = 0.25000 0.50000 0.25000  MULTIPLICITY = 4  ZZ= 11.000  Na11      

       LMMAX 28
       LM=   0 0  1 1 -1 1  2 0  2 2 -2 2  3 1 -3 1  3 3 -3 3  4 0  4 2 -4 2  4 4 -4 4  5 1 -5 1
         5 3 -5 3  5 5 -5 5  6 0  6 2 -6 2  6 4 -6 4  6 6 -6 6

:CHA011: TOTAL VALENCE CHARGE INSIDE SPHERE  11 =     8.164087
:PCS011: PARTIAL CHARGES SPHERE = 11 S,P,D,F,PX,PY,PZ,D-Z2,D-X2Y2,D-XY,D-XZ,D-YZ 
:QTL011: 2.0683 6.0468 0.0381 0.0086 2.0156 2.0156 2.0156 0.0153 0.0153 0.0025 0.0025 0.0025
        Q-s-low E-s-low   Q-p-low E-p-low   Q-d-low E-d-low   Q-f-low E-f-low
:EPL011:  2.0019 -3.7318    5.9709 -1.6724    0.0030 -1.0434    0.0009 -1.0482
        Q-s-hi  E-s-hi    Q-p-hi  E-p-hi    Q-d-hi  E-d-hi    Q-f-hi  E-f-hi 
:EPH011:  0.0665 -0.2368    0.0759 -0.2038    0.0350 -0.1848    0.0077 -0.1811

                      QXX         QXY         QYY         QZZ       UP TO R

:VZZ011:            -0.00015     0.00000    -0.00036     0.00051       2.500




:POS012: ATOM  -12 POSITION = 0.75000 0.50000 0.25000  MULTIPLICITY = 4  ZZ= 11.000  Na12      

       LMMAX 28
       LM=   0 0  1 1 -1 1  2 0  2 2 -2 2  3 1 -3 1  3 3 -3 3  4 0  4 2 -4 2  4 4 -4 4  5 1 -5 1
         5 3 -5 3  5 5 -5 5  6 0  6 2 -6 2  6 4 -6 4  6 6 -6 6

:CHA012: TOTAL VALENCE CHARGE INSIDE SPHERE  12 =     8.164090
:PCS012: PARTIAL CHARGES SPHERE = 12 S,P,D,F,PX,PY,PZ,D-Z2,D-X2Y2,D-XY,D-XZ,D-YZ 
:QTL012: 2.0683 6.0468 0.0381 0.0086 2.0156 2.0156 2.0156 0.0153 0.0153 0.0025 0.0025 0.0025
        Q-s-low E-s-low   Q-p-low E-p-low   Q-d-low E-d-low   Q-f-low E-f-low
:EPL012:  2.0019 -3.7317    5.9709 -1.6723    0.0030 -1.0433    0.0009 -1.0482
        Q-s-hi  E-s-hi    Q-p-hi  E-p-hi    Q-d-hi  E-d-hi    Q-f-hi  E-f-hi 
:EPH012:  0.0665 -0.2368    0.0759 -0.2037    0.0350 -0.1847    0.0077 -0.1810

                      QXX         QXY         QYY         QZZ       UP TO R

:VZZ012:            -0.00004     0.00000     0.00015    -0.00011       2.500




:POS013: ATOM  -13 POSITION = 0.25000 0.25000 0.25000  MULTIPLICITY = 4  ZZ= 17.000  Cl13      

       LMMAX 28
       LM=   0 0  1 1 -1 1  2 0  2 2 -2 2  3 1 -3 1  3 3 -3 3  4 0  4 2 -4 2  4 4 -4 4  5 1 -5 1
         5 3 -5 3  5 5 -5 5  6 0  6 2 -6 2  6 4 -6 4  6 6 -6 6

:CHA013: TOTAL VALENCE CHARGE INSIDE SPHERE  13 =     6.400318
:PCS013: PARTIAL CHARGES SPHERE = 13 S,P,D,F,PX,PY,PZ,D-Z2,D-X2Y2,D-XY,D-XZ,D-YZ 
:QTL013: 1.8311 4.5642 0.0042 0.0007 1.5214 1.5214 1.5214 0.0009 0.0008 0.0009 0.0009 0.0008
        Q-s-low E-s-low   Q-p-low E-p-low   Q-d-low E-d-low   Q-f-low E-f-low
:EPL013:  1.8245 -1.0465    0.0015 -1.6211    0.0006 -1.6974    0.0002 -1.7330
        Q-s-hi  E-s-hi    Q-p-hi  E-p-hi    Q-d-hi  E-d-hi    Q-f-hi  E-f-hi 
:EPH013:  0.0066 -0.2234    4.5627 -0.1944    0.0036 -0.2004    0.0004 -0.1870

                      QXX         QXY         QYY         QZZ       UP TO R

:VZZ013:            -0.00250     0.00073     0.00360    -0.00110       2.500




:POS014: ATOM  -14 POSITION = 0.75000 0.25000 0.25000  MULTIPLICITY = 4  ZZ= 17.000  Cl14      

       LMMAX 28
       LM=   0 0  1 1 -1 1  2 0  2 2 -2 2  3 1 -3 1  3 3 -3 3  4 0  4 2 -4 2  4 4 -4 4  5 1 -5 1
         5 3 -5 3  5 5 -5 5  6 0  6 2 -6 2  6 4 -6 4  6 6 -6 6

:CHA014: TOTAL VALENCE CHARGE INSIDE SPHERE  14 =     6.400320
:PCS014: PARTIAL CHARGES SPHERE = 14 S,P,D,F,PX,PY,PZ,D-Z2,D-X2Y2,D-XY,D-XZ,D-YZ 
:QTL014: 1.8311 4.5642 0.0042 0.0007 1.5214 1.5214 1.5214 0.0009 0.0008 0.0009 0.0009 0.0008
        Q-s-low E-s-low   Q-p-low E-p-low   Q-d-low E-d-low   Q-f-low E-f-low
:EPL014:  1.8245 -1.0463    0.0015 -1.6210    0.0006 -1.6973    0.0002 -1.7329
        Q-s-hi  E-s-hi    Q-p-hi  E-p-hi    Q-d-hi  E-d-hi    Q-f-hi  E-f-hi 
:EPH014:  0.0066 -0.2233    4.5627 -0.1942    0.0036 -0.2003    0.0004 -0.1869

                      QXX         QXY         QYY         QZZ       UP TO R

:VZZ014:             0.00096     0.00073    -0.00281     0.00185       2.500




:POS015: ATOM  -15 POSITION = 0.25000 0.00000 0.00000  MULTIPLICITY = 1  ZZ= 17.000  Cl15      

       LMMAX 10
       LM=   0 0  1 0  2 0  3 0  4 0  4 4  5 0  5 4  6 0  6 4

:CHA015: TOTAL VALENCE CHARGE INSIDE SPHERE  15 =     6.400754
:PCS015: PARTIAL CHARGES SPHERE = 15 S,P,D,F,PZ,PXY,,D-Z2,D-XY,D-X2Y2,D-XZ,YZ 
:QTL015: 1.8311 4.5646 0.0042 0.0007 1.5216 3.0430 0.0000 0.0008 0.0009 0.0008 0.0017 0.0000
        Q-s-low E-s-low   Q-p-low E-p-low   Q-d-low E-d-low   Q-f-low E-f-low
:EPL015:  1.8245 -1.0471    0.0015 -1.6220    0.0006 -1.6980    0.0002 -1.7336
        Q-s-hi  E-s-hi    Q-p-hi  E-p-hi    Q-d-hi  E-d-hi    Q-f-hi  E-f-hi 
:EPH015:  0.0066 -0.2235    4.5631 -0.1950    0.0036 -0.2004    0.0004 -0.1870
:VZZ015: EFG INSIDE SPHERE  15 =    -0.003655      UP TO R =   2.50000




:POS016: ATOM  -16 POSITION = 0.75000 0.00000 0.00000  MULTIPLICITY = 1  ZZ= 17.000  Cl16      

       LMMAX 10
       LM=   0 0  1 0  2 0  3 0  4 0  4 4  5 0  5 4  6 0  6 4

:CHA016: TOTAL VALENCE CHARGE INSIDE SPHERE  16 =     6.399897
:PCS016: PARTIAL CHARGES SPHERE = 16 S,P,D,F,PZ,PXY,,D-Z2,D-XY,D-X2Y2,D-XZ,YZ 
:QTL016: 1.8311 4.5638 0.0042 0.0007 1.5212 3.0426 0.0000 0.0008 0.0009 0.0008 0.0017 0.0000
        Q-s-low E-s-low   Q-p-low E-p-low   Q-d-low E-d-low   Q-f-low E-f-low
:EPL016:  1.8245 -1.0457    0.0015 -1.6202    0.0006 -1.6966    0.0002 -1.7324
        Q-s-hi  E-s-hi    Q-p-hi  E-p-hi    Q-d-hi  E-d-hi    Q-f-hi  E-f-hi 
:EPH016:  0.0066 -0.2233    4.5623 -0.1936    0.0036 -0.2003    0.0004 -0.1868
:VZZ016: EFG INSIDE SPHERE  16 =     0.003068      UP TO R =   2.50000




:POS017: ATOM  -17 POSITION = 0.25000 0.50000 0.00000  MULTIPLICITY = 2  ZZ= 17.000  Cl17      

       LMMAX 16
       LM=   0 0  1 0  2 0  2 2  3 0  3 2  4 0  4 2  4 4  5 0  5 2  5 4  6 0  6 2  6 4  6 6

:CHA017: TOTAL VALENCE CHARGE INSIDE SPHERE  17 =     6.400321
:PCS017: PARTIAL CHARGES SPHERE = 17 S,P,D,F,PX,PY,PZ,D-Z2,D-X2Y2,D-XY,D-XZ,D-YZ 
:QTL017: 1.8311 4.5642 0.0042 0.0007 1.5214 1.5214 1.5214 0.0008 0.0008 0.0009 0.0009 0.0009
        Q-s-low E-s-low   Q-p-low E-p-low   Q-d-low E-d-low   Q-f-low E-f-low
:EPL017:  1.8245 -1.0464    0.0015 -1.6211    0.0006 -1.6974    0.0002 -1.7330
        Q-s-hi  E-s-hi    Q-p-hi  E-p-hi    Q-d-hi  E-d-hi    Q-f-hi  E-f-hi 
:EPH017:  0.0066 -0.2234    4.5627 -0.1943    0.0036 -0.2004    0.0004 -0.1869

                      VXX         VYY         VZZ       UP TO R

:VZZ017:             0.00022     0.00072    -0.00094       2.500




:POS018: ATOM  -18 POSITION = 0.75000 0.50000 0.00000  MULTIPLICITY = 2  ZZ= 17.000  Cl18      

       LMMAX 16
       LM=   0 0  1 0  2 0  2 2  3 0  3 2  4 0  4 2  4 4  5 0  5 2  5 4  6 0  6 2  6 4  6 6

:CHA018: TOTAL VALENCE CHARGE INSIDE SPHERE  18 =     6.400319
:PCS018: PARTIAL CHARGES SPHERE = 18 S,P,D,F,PX,PY,PZ,D-Z2,D-X2Y2,D-XY,D-XZ,D-YZ 
:QTL018: 1.8311 4.5642 0.0042 0.0007 1.5214 1.5214 1.5214 0.0008 0.0008 0.0009 0.0009 0.0009
        Q-s-low E-s-low   Q-p-low E-p-low   Q-d-low E-d-low   Q-f-low E-f-low
:EPL018:  1.8245 -1.0464    0.0015 -1.6210    0.0006 -1.6973    0.0002 -1.7329
        Q-s-hi  E-s-hi    Q-p-hi  E-p-hi    Q-d-hi  E-d-hi    Q-f-hi  E-f-hi 
:EPH018:  0.0066 -0.2234    4.5627 -0.1943    0.0036 -0.2004    0.0004 -0.1869

                      VXX         VYY         VZZ       UP TO R

:VZZ018:            -0.00045    -0.00084     0.00129       2.500




:POS019: ATOM  -19 POSITION = 0.25000 0.50000 0.50000  MULTIPLICITY = 1  ZZ= 17.000  Cl19      

       LMMAX 10
       LM=   0 0  1 0  2 0  3 0  4 0  4 4  5 0  5 4  6 0  6 4

:CHA019: TOTAL VALENCE CHARGE INSIDE SPHERE  19 =     6.400319
:PCS019: PARTIAL CHARGES SPHERE = 19 S,P,D,F,PZ,PXY,,D-Z2,D-XY,D-X2Y2,D-XZ,YZ 
:QTL019: 1.8311 4.5642 0.0042 0.0007 1.5214 3.0428 0.0000 0.0008 0.0009 0.0008 0.0017 0.0000
        Q-s-low E-s-low   Q-p-low E-p-low   Q-d-low E-d-low   Q-f-low E-f-low
:EPL019:  1.8245 -1.0464    0.0015 -1.6211    0.0006 -1.6974    0.0002 -1.7330
        Q-s-hi  E-s-hi    Q-p-hi  E-p-hi    Q-d-hi  E-d-hi    Q-f-hi  E-f-hi 
:EPH019:  0.0066 -0.2234    4.5627 -0.1943    0.0036 -0.2004    0.0004 -0.1869
:VZZ019: EFG INSIDE SPHERE  19 =    -0.000582      UP TO R =   2.50000




:POS020: ATOM  -20 POSITION = 0.75000 0.50000 0.50000  MULTIPLICITY = 1  ZZ= 17.000  Cl20      

       LMMAX 10
       LM=   0 0  1 0  2 0  3 0  4 0  4 4  5 0  5 4  6 0  6 4

:CHA020: TOTAL VALENCE CHARGE INSIDE SPHERE  20 =     6.400321
:PCS020: PARTIAL CHARGES SPHERE = 20 S,P,D,F,PZ,PXY,,D-Z2,D-XY,D-X2Y2,D-XZ,YZ 
:QTL020: 1.8311 4.5642 0.0042 0.0007 1.5214 3.0428 0.0000 0.0008 0.0009 0.0008 0.0017 0.0000
        Q-s-low E-s-low   Q-p-low E-p-low   Q-d-low E-d-low   Q-f-low E-f-low
:EPL020:  1.8245 -1.0464    0.0015 -1.6211    0.0006 -1.6973    0.0002 -1.7329
        Q-s-hi  E-s-hi    Q-p-hi  E-p-hi    Q-d-hi  E-d-hi    Q-f-hi  E-f-hi 
:EPH020:  0.0066 -0.2234    4.5627 -0.1943    0.0036 -0.2003    0.0004 -0.1869
:VZZ020: EFG INSIDE SPHERE  20 =     0.000989      UP TO R =   2.50000




:POS021: ATOM  -21 POSITION = 0.50000 0.25000 0.50000  MULTIPLICITY = 4  ZZ= 17.000  Cl21      

       LMMAX 28
       LM=   0 0  1 1 -1 1  2 0  2 2 -2 2  3 1 -3 1  3 3 -3 3  4 0  4 2 -4 2  4 4 -4 4  5 1 -5 1
         5 3 -5 3  5 5 -5 5  6 0  6 2 -6 2  6 4 -6 4  6 6 -6 6

:CHA021: TOTAL VALENCE CHARGE INSIDE SPHERE  21 =     6.400333
:PCS021: PARTIAL CHARGES SPHERE = 21 S,P,D,F,PX,PY,PZ,D-Z2,D-X2Y2,D-XY,D-XZ,D-YZ 
:QTL021: 1.8311 4.5642 0.0042 0.0007 1.5214 1.5214 1.5214 0.0008 0.0008 0.0009 0.0009 0.0009
        Q-s-low E-s-low   Q-p-low E-p-low   Q-d-low E-d-low   Q-f-low E-f-low
:EPL021:  1.8245 -1.0464    0.0015 -1.6211    0.0006 -1.6973    0.0002 -1.7330
        Q-s-hi  E-s-hi    Q-p-hi  E-p-hi    Q-d-hi  E-d-hi    Q-f-hi  E-f-hi 
:EPH021:  0.0066 -0.2234    4.5627 -0.1943    0.0036 -0.2004    0.0004 -0.1869

                      QXX         QXY         QYY         QZZ       UP TO R

:VZZ021:             0.00050    -0.00006     0.00008    -0.00058       2.500




:POS022: ATOM  -22 POSITION = 0.00000 0.25000 0.00000  MULTIPLICITY = 4  ZZ= 17.000  Cl22      

       LMMAX 28
       LM=   0 0  1 1 -1 1  2 0  2 2 -2 2  3 1 -3 1  3 3 -3 3  4 0  4 2 -4 2  4 4 -4 4  5 1 -5 1
         5 3 -5 3  5 5 -5 5  6 0  6 2 -6 2  6 4 -6 4  6 6 -6 6

:CHA022: TOTAL VALENCE CHARGE INSIDE SPHERE  22 =     6.400332
:PCS022: PARTIAL CHARGES SPHERE = 22 S,P,D,F,PX,PY,PZ,D-Z2,D-X2Y2,D-XY,D-XZ,D-YZ 
:QTL022: 1.8311 4.5642 0.0042 0.0007 1.5214 1.5214 1.5214 0.0008 0.0008 0.0009 0.0009 0.0009
        Q-s-low E-s-low   Q-p-low E-p-low   Q-d-low E-d-low   Q-f-low E-f-low
:EPL022:  1.8245 -1.0464    0.0015 -1.6211    0.0006 -1.6973    0.0002 -1.7330
        Q-s-hi  E-s-hi    Q-p-hi  E-p-hi    Q-d-hi  E-d-hi    Q-f-hi  E-f-hi 
:EPH022:  0.0066 -0.2234    4.5627 -0.1943    0.0036 -0.2004    0.0004 -0.1869

                      QXX         QXY         QYY         QZZ       UP TO R

:VZZ022:             0.00062    -0.01369     0.00008    -0.00070       2.500




:POS023: ATOM  -23 POSITION = 0.50000 0.25000 0.00000  MULTIPLICITY = 4  ZZ= 17.000  Cl23      

       LMMAX 28
       LM=   0 0  1 1 -1 1  2 0  2 2 -2 2  3 1 -3 1  3 3 -3 3  4 0  4 2 -4 2  4 4 -4 4  5 1 -5 1
         5 3 -5 3  5 5 -5 5  6 0  6 2 -6 2  6 4 -6 4  6 6 -6 6

:CHA023: TOTAL VALENCE CHARGE INSIDE SPHERE  23 =     6.400333
:PCS023: PARTIAL CHARGES SPHERE = 23 S,P,D,F,PX,PY,PZ,D-Z2,D-X2Y2,D-XY,D-XZ,D-YZ 
:QTL023: 1.8311 4.5642 0.0042 0.0007 1.5214 1.5214 1.5214 0.0008 0.0008 0.0009 0.0009 0.0009
        Q-s-low E-s-low   Q-p-low E-p-low   Q-d-low E-d-low   Q-f-low E-f-low
:EPL023:  1.8245 -1.0464    0.0015 -1.6211    0.0006 -1.6973    0.0002 -1.7330
        Q-s-hi  E-s-hi    Q-p-hi  E-p-hi    Q-d-hi  E-d-hi    Q-f-hi  E-f-hi 
:EPH023:  0.0066 -0.2234    4.5627 -0.1943    0.0036 -0.2004    0.0004 -0.1869

                      QXX         QXY         QYY         QZZ       UP TO R

:VZZ023:             0.00058     0.00370     0.00011    -0.00069       2.500




[...]

       17.ATOM      Cl17                  4 CORE STATES
       CORE-FORCE in mRy/a.u. = |F|      Fx             Fy             Fz
:FCO017:  17.ATOM          0.048          0.000          0.000          0.048

:1S 017: 1S                -201.646096652 Ry
:2S 017: 2S                 -18.028666228 Ry
:2PP017: 2P*                -13.622285680 Ry
:2P 017: 2P                 -13.497615598 Ry

       18.ATOM      Cl18                  4 CORE STATES
       CORE-FORCE in mRy/a.u. = |F|      Fx             Fy             Fz
:FCO018:  18.ATOM          0.046          0.000          0.000          0.046

:1S 018: 1S                -201.646051899 Ry
:2S 018: 2S                 -18.028620809 Ry
:2PP018: 2P*                -13.622240329 Ry
:2P 018: 2P                 -13.497570243 Ry

       19.ATOM      Cl19                  4 CORE STATES
       CORE-FORCE in mRy/a.u. = |F|      Fx             Fy             Fz
:FCO019:  19.ATOM          0.031          0.000          0.000          0.031

:1S 019: 1S                -201.646099664 Ry
:2S 019: 2S                 -18.028669215 Ry
:2PP019: 2P*                -13.622288668 Ry
:2P 019: 2P                 -13.497618586 Ry

       20.ATOM      Cl20                  4 CORE STATES
       CORE-FORCE in mRy/a.u. = |F|      Fx             Fy             Fz
:FCO020:  20.ATOM          0.031          0.000          0.000          0.031

:1S 020: 1S                -201.646049701 Ry
:2S 020: 2S                 -18.028618700 Ry
:2PP020: 2P*                -13.622238211 Ry
:2P 020: 2P                 -13.497568125 Ry

       21.ATOM      Cl21                  4 CORE STATES
       CORE-FORCE in mRy/a.u. = |F|      Fx             Fy             Fz
:FCO021:  21.ATOM          0.067         -0.067         -0.001          0.000

:1S 021: 1S                -201.646067853 Ry
:2S 021: 2S                 -18.028637739 Ry
:2PP021: 2P*                -13.622257152 Ry
:2P 021: 2P                 -13.497587072 Ry

       22.ATOM      Cl22                  4 CORE STATES
       CORE-FORCE in mRy/a.u. = |F|      Fx             Fy             Fz
:FCO022:  22.ATOM          0.931          0.931          0.005          0.000

:1S 022: 1S                -201.646066318 Ry
:2S 022: 2S                 -18.028636150 Ry
:2PP022: 2P*                -13.622255569 Ry
:2P 022: 2P                 -13.497585489 Ry

       23.ATOM      Cl23                  4 CORE STATES
       CORE-FORCE in mRy/a.u. = |F|      Fx             Fy             Fz
:FCO023:  23.ATOM          0.319         -0.319          0.002          0.000

:1S 023: 1S                -201.646067328 Ry
:2S 023: 2S                 -18.028637227 Ry
:2PP023: 2P*                -13.622256639 Ry
:2P 023: 2P                 -13.497586559 Ry

       24.ATOM      Cl24                  4 CORE STATES
       CORE-FORCE in mRy/a.u. = |F|      Fx             Fy             Fz
:FCO024:  24.ATOM          0.083          0.083         -0.001          0.000

:1S 024: 1S                -201.646067589 Ry
:2S 024: 2S                 -18.028637473 Ry
:2PP024: 2P*                -13.622256886 Ry
:2P 024: 2P                 -13.497586806 Ry

       DENSITY AT NUCLEUS
        JATOM    VALENCE       SEMI-CORE            CORE           TOTAL
:RTO001:   1       50.044209        0.000000      823.018046      873.062256
:RTO002:   2       50.044189        0.000000      823.018049      873.062238
:RTO003:   3       50.044180        0.000000      823.018049      873.062230
:RTO004:   4       50.044185        0.000000      823.018049      873.062234
:RTO005:   5       50.044189        0.000000      823.018049      873.062238
:RTO006:   6       50.044190        0.000000      823.018049      873.062239
:RTO007:   7       50.044175        0.000000      823.018046      873.062221
:RTO008:   8       50.044179        0.000000      823.018045      873.062225
:RTO009:   9       50.045332        0.000000      823.017982      873.063313
:RTO010:  10       50.046768        0.000000      823.017898      873.064666
:RTO011:  11       50.044431        0.000000      823.018035      873.062466
:RTO012:  12       50.043952        0.000000      823.018063      873.062015
:RTO013:  13       25.473589        0.000000     3536.577558     3562.051147
:RTO014:  14       25.473581        0.000000     3536.577578     3562.051159
:RTO015:  15       25.472845        0.000000     3536.577213     3562.050058
:RTO016:  16       25.474319        0.000000     3536.577914     3562.052233
:RTO017:  17       25.473590        0.000000     3536.577564     3562.051153
:RTO018:  18       25.473581        0.000000     3536.577572     3562.051153
:RTO019:  19       25.473581        0.000000     3536.577564     3562.051145
:RTO020:  20       25.473588        0.000000     3536.577570     3562.051159
:RTO021:  21       25.473550        0.000000     3536.577561     3562.051111
:RTO022:  22       25.473550        0.000000     3536.577562     3562.051112
:RTO023:  23       25.473548        0.000000     3536.577561     3562.051109
:RTO024:  24       25.473550        0.000000     3536.577561     3562.051111
 Note: symmetry trapping
     
       CHARGES OF NEW CHARGE DENSITY
:NTO  : TOTAL   INTERSTITIAL CHARGE=   45.9386999
:NTO001: TOTAL   CHARGE IN SPHERE  1 =       10.1641188
:NTO002: TOTAL   CHARGE IN SPHERE  2 =       10.1640895
:NTO003: TOTAL   CHARGE IN SPHERE  3 =       10.1640893
:NTO004: TOTAL   CHARGE IN SPHERE  4 =       10.1640893
:NTO005: TOTAL   CHARGE IN SPHERE  5 =       10.1640895
:NTO006: TOTAL   CHARGE IN SPHERE  6 =       10.1640894
:NTO007: TOTAL   CHARGE IN SPHERE  7 =       10.1640776
:NTO008: TOTAL   CHARGE IN SPHERE  8 =       10.1640777
:NTO009: TOTAL   CHARGE IN SPHERE  9 =       10.1641121
:NTO010: TOTAL   CHARGE IN SPHERE 10 =       10.1640656
:NTO011: TOTAL   CHARGE IN SPHERE 11 =       10.1640869
:NTO012: TOTAL   CHARGE IN SPHERE 12 =       10.1640903
:NTO013: TOTAL   CHARGE IN SPHERE 13 =       16.4003163
:NTO014: TOTAL   CHARGE IN SPHERE 14 =       16.4003185
:NTO015: TOTAL   CHARGE IN SPHERE 15 =       16.4007520
:NTO016: TOTAL   CHARGE IN SPHERE 16 =       16.3998955
:NTO017: TOTAL   CHARGE IN SPHERE 17 =       16.4003189
:NTO018: TOTAL   CHARGE IN SPHERE 18 =       16.4003170
:NTO019: TOTAL   CHARGE IN SPHERE 19 =       16.4003175
:NTO020: TOTAL   CHARGE IN SPHERE 20 =       16.4003193
:NTO021: TOTAL   CHARGE IN SPHERE 21 =       16.4003310
:NTO022: TOTAL   CHARGE IN SPHERE 22 =       16.4003305
:NTO023: TOTAL   CHARGE IN SPHERE 23 =       16.4003314
:NTO024: TOTAL   CHARGE IN SPHERE 24 =       16.4003310

:NEC01: NUCLEAR AND ELECTRONIC CHARGE    896.00000   895.99988     1.00000
     
       CHARGES OF OLD CHARGE DENSITY
:OTO  : TOTAL   INTERSTITIAL CHARGE=   45.9388247
:OTO001: TOTAL   CHARGE IN SPHERE  1 =       10.1641188
:OTO002: TOTAL   CHARGE IN SPHERE  2 =       10.1640895
:OTO003: TOTAL   CHARGE IN SPHERE  3 =       10.1640893
:OTO004: TOTAL   CHARGE IN SPHERE  4 =       10.1640893
:OTO005: TOTAL   CHARGE IN SPHERE  5 =       10.1640895
:OTO006: TOTAL   CHARGE IN SPHERE  6 =       10.1640894
:OTO007: TOTAL   CHARGE IN SPHERE  7 =       10.1640776
:OTO008: TOTAL   CHARGE IN SPHERE  8 =       10.1640777
:OTO009: TOTAL   CHARGE IN SPHERE  9 =       10.1641121
:OTO010: TOTAL   CHARGE IN SPHERE 10 =       10.1640656
:OTO011: TOTAL   CHARGE IN SPHERE 11 =       10.1640869
:OTO012: TOTAL   CHARGE IN SPHERE 12 =       10.1640903
:OTO013: TOTAL   CHARGE IN SPHERE 13 =       16.4003163
:OTO014: TOTAL   CHARGE IN SPHERE 14 =       16.4003185
:OTO015: TOTAL   CHARGE IN SPHERE 15 =       16.4007520
:OTO016: TOTAL   CHARGE IN SPHERE 16 =       16.3998955
:OTO017: TOTAL   CHARGE IN SPHERE 17 =       16.4003189
:OTO018: TOTAL   CHARGE IN SPHERE 18 =       16.4003170
:OTO019: TOTAL   CHARGE IN SPHERE 19 =       16.4003175
:OTO020: TOTAL   CHARGE IN SPHERE 20 =       16.4003193
:OTO021: TOTAL   CHARGE IN SPHERE 21 =       16.4003310
:OTO022: TOTAL   CHARGE IN SPHERE 22 =       16.4003305
:OTO023: TOTAL   CHARGE IN SPHERE 23 =       16.4003314
:OTO024: TOTAL   CHARGE IN SPHERE 24 =       16.4003310

:NEC02: NUCLEAR AND ELECTRONIC CHARGE    896.00000   896.00000     1.00000
     
       CONVERGENCE TEST
:DTO001: TOTAL   DIFFERENCE CHARGE**2 IN SPHERE  1 =  0.0000000
:DTO002: TOTAL   DIFFERENCE CHARGE**2 IN SPHERE  2 =  0.0000000
:DTO003: TOTAL   DIFFERENCE CHARGE**2 IN SPHERE  3 =  0.0000000
:DTO004: TOTAL   DIFFERENCE CHARGE**2 IN SPHERE  4 =  0.0000000
:DTO005: TOTAL   DIFFERENCE CHARGE**2 IN SPHERE  5 =  0.0000000
:DTO006: TOTAL   DIFFERENCE CHARGE**2 IN SPHERE  6 =  0.0000000
:DTO007: TOTAL   DIFFERENCE CHARGE**2 IN SPHERE  7 =  0.0000000
:DTO008: TOTAL   DIFFERENCE CHARGE**2 IN SPHERE  8 =  0.0000000
:DTO009: TOTAL   DIFFERENCE CHARGE**2 IN SPHERE  9 =  0.0000000
:DTO010: TOTAL   DIFFERENCE CHARGE**2 IN SPHERE 10 =  0.0000000
:DTO011: TOTAL   DIFFERENCE CHARGE**2 IN SPHERE 11 =  0.0000000
:DTO012: TOTAL   DIFFERENCE CHARGE**2 IN SPHERE 12 =  0.0000000
:DTO013: TOTAL   DIFFERENCE CHARGE**2 IN SPHERE 13 =  0.0000000
:DTO014: TOTAL   DIFFERENCE CHARGE**2 IN SPHERE 14 =  0.0000000
:DTO015: TOTAL   DIFFERENCE CHARGE**2 IN SPHERE 15 =  0.0000000
:DTO016: TOTAL   DIFFERENCE CHARGE**2 IN SPHERE 16 =  0.0000000
:DTO017: TOTAL   DIFFERENCE CHARGE**2 IN SPHERE 17 =  0.0000000
:DTO018: TOTAL   DIFFERENCE CHARGE**2 IN SPHERE 18 =  0.0000000
:DTO019: TOTAL   DIFFERENCE CHARGE**2 IN SPHERE 19 =  0.0000000
:DTO020: TOTAL   DIFFERENCE CHARGE**2 IN SPHERE 20 =  0.0000000
:DTO021: TOTAL   DIFFERENCE CHARGE**2 IN SPHERE 21 =  0.0000000
:DTO022: TOTAL   DIFFERENCE CHARGE**2 IN SPHERE 22 =  0.0000000
:DTO023: TOTAL   DIFFERENCE CHARGE**2 IN SPHERE 23 =  0.0000000
:DTO024: TOTAL   DIFFERENCE CHARGE**2 IN SPHERE 24 =  0.0000000

:DIS  :  CHARGE DISTANCE       ( 0.0000000 for atom   16 spin 1)      0.0000000
:BIG check (qbig,qrms,qtot)    0.272D-09   0.294D-09   0.391D-09
 
******************************************************
* MULTISECANT MIXING VER4 OPTIONS                    *
* Unpredicted Step Limit   0.100000                  *
* Plane Wave Dynamic Rescaling                       *
* Dynamic Regularization active                      *
* Upper Cutoff Lambda  1.0E-01 Lower 3.5E-04         *
* SQRT Multiplicity/Degeneracy                       *
* Max Number of Memory Steps    8                    *
******************************************************
 
:PLANE:  INTERSTITIAL TOTAL      3.54440 DISTAN  1.312E-08 % 
:CHARG:  CLM CHARGE   /ATOM     13.53765 DISTAN  2.037E-09 % 
:INFO :  Dynamic rescale   1.257E+01  1.000E-01
:INFO :  Number of Memory Steps    7 Skipping    0
:INFO :  Singular value   6.248E+00 Weight   1.000E+00 Projections  -1.002E-10  9.170E-10
:INFO :  Singular value   3.543E+00 Weight   1.000E+00 Projections  -1.035E-10 -1.932E-09
:INFO :  Singular value   1.606E+00 Weight   1.000E+00 Projections  -1.468E-10 -1.993E-09
:INFO :  Singular value   1.229E+00 Weight   1.000E+00 Projections  -8.407E-11  8.702E-09
:INFO :  Singular value   3.183E-06 Weight   1.118E-05 Projections   1.313E-09 -1.597E-12
:INFO :  Singular value   1.294E-07 Weight   1.848E-08 Projections   1.127E-09 -4.750E-14
:INFO :  Singular value   2.018E-08 Weight   4.496E-10 Projections  -9.013E-09 -3.731E-15
:INFO :  Bounds         0.138D+00  0.200D+00  0.305D+00  0.138D+00
:DIRM :  MEMORY 7/8 RESCALE  12.57 RED 0.766 PRED 0.948 NEXT 0.328 COND 8.93E-01
:DIRP :  |BROYD|= 5.078E-09 |PRATT|= 8.049E-10 ANGLE=  27.0 DEGREES
:DIRB :  |BROYD|= 6.196E-09 |PRATT|= 1.217E-09 ANGLE=  28.5 DEGREES
:MIX  :  MSR1   REGULARIZATION: 9.52E-04  GREED: 0.138
     
       CHARGES OF MIXED CHARGE DENSITY
:CTO  : TOTAL   INTERSTITIAL CHARGE=   45.9388247
:CTO001: TOTAL   CHARGE IN SPHERE  1 =       10.1641188
:CTO002: TOTAL   CHARGE IN SPHERE  2 =       10.1640895
:CTO003: TOTAL   CHARGE IN SPHERE  3 =       10.1640893
:CTO004: TOTAL   CHARGE IN SPHERE  4 =       10.1640893
:CTO005: TOTAL   CHARGE IN SPHERE  5 =       10.1640895
:CTO006: TOTAL   CHARGE IN SPHERE  6 =       10.1640894
:CTO007: TOTAL   CHARGE IN SPHERE  7 =       10.1640776
:CTO008: TOTAL   CHARGE IN SPHERE  8 =       10.1640777
:CTO009: TOTAL   CHARGE IN SPHERE  9 =       10.1641121
:CTO010: TOTAL   CHARGE IN SPHERE 10 =       10.1640656
:CTO011: TOTAL   CHARGE IN SPHERE 11 =       10.1640869
:CTO012: TOTAL   CHARGE IN SPHERE 12 =       10.1640903
:CTO013: TOTAL   CHARGE IN SPHERE 13 =       16.4003163
:CTO014: TOTAL   CHARGE IN SPHERE 14 =       16.4003185
:CTO015: TOTAL   CHARGE IN SPHERE 15 =       16.4007520
:CTO016: TOTAL   CHARGE IN SPHERE 16 =       16.3998955
:CTO017: TOTAL   CHARGE IN SPHERE 17 =       16.4003189
:CTO018: TOTAL   CHARGE IN SPHERE 18 =       16.4003170
:CTO019: TOTAL   CHARGE IN SPHERE 19 =       16.4003175
:CTO020: TOTAL   CHARGE IN SPHERE 20 =       16.4003193
:CTO021: TOTAL   CHARGE IN SPHERE 21 =       16.4003310
:CTO022: TOTAL   CHARGE IN SPHERE 22 =       16.4003305
:CTO023: TOTAL   CHARGE IN SPHERE 23 =       16.4003314
:CTO024: TOTAL   CHARGE IN SPHERE 24 =       16.4003310

:NEC03: NUCLEAR AND ELECTRONIC CHARGE    896.00000   896.00000     1.00000


:ENE  : ********** TOTAL ENERGY IN Ry =       -39940.36220062

       TOTAL FORCE IN mRy/a.u. = |F|     Fx             Fy             Fz     with/without FOR in case.in2
:FOR001:   1.ATOM       0.780000       0.000000       0.000000      -0.780000 total forces
:FOR002:   2.ATOM       0.122000       0.000000       0.000000       0.122000 total forces
:FOR003:   3.ATOM       0.003000       0.000000       0.000000      -0.003000 total forces
:FOR004:   4.ATOM       0.004000       0.000000       0.000000       0.004000 total forces
:FOR005:   5.ATOM       0.007000       0.000000       0.000000      -0.007000 total forces
:FOR006:   6.ATOM       0.005000       0.000000       0.000000       0.005000 total forces
:FOR007:   7.ATOM       0.022023       0.022000       0.001000       0.000000 total forces
:FOR008:   8.ATOM       0.017029      -0.017000      -0.001000       0.000000 total forces
:FOR009:   9.ATOM       0.086035       0.081000       0.029000       0.000000 total forces
:FOR010:  10.ATOM       0.085440      -0.080000       0.030000       0.000000 total forces
:FOR011:  11.ATOM       0.009055      -0.001000       0.009000       0.000000 total forces
:FOR012:  12.ATOM       0.010050       0.001000       0.010000       0.000000 total forces
:FOR013:  13.ATOM       0.025080       0.002000       0.025000       0.000000 total forces
:FOR014:  14.ATOM       0.024331       0.004000      -0.024000       0.000000 total forces
:FOR015:  15.ATOM       0.213000       0.000000       0.000000       0.213000 total forces
:FOR016:  16.ATOM       0.195000       0.000000       0.000000       0.195000 total forces
:FOR017:  17.ATOM       0.014000       0.000000       0.000000       0.014000 total forces
:FOR018:  18.ATOM       0.013000       0.000000       0.000000       0.013000 total forces
:FOR019:  19.ATOM       0.011000       0.000000       0.000000       0.011000 total forces
:FOR020:  20.ATOM       0.012000       0.000000       0.000000       0.012000 total forces
:FOR021:  21.ATOM       0.006083      -0.006000      -0.001000       0.000000 total forces
:FOR022:  22.ATOM       0.075000       0.075000       0.000000       0.000000 total forces
:FOR023:  23.ATOM       0.036014      -0.036000       0.001000       0.000000 total forces
:FOR024:  24.ATOM       0.012042       0.012000      -0.001000       0.000000 total forces

       TOTAL FORCE WITH RESPECT TO GLOBAL CARTESIAN COORDINATES:
:FCA001:   1.ATOM                     -0.780000       0.000000       0.000000 total forces
:FCA002:   2.ATOM                      0.122000       0.000000       0.000000 total forces
:FCA003:   3.ATOM                     -0.003000       0.000000       0.000000 total forces
:FCA004:   4.ATOM                      0.004000       0.000000       0.000000 total forces
:FCA005:   5.ATOM                     -0.007000       0.000000       0.000000 total forces
:FCA006:   6.ATOM                      0.005000       0.000000       0.000000 total forces
:FCA007:   7.ATOM                     -0.022000      -0.000707      -0.000707 total forces
:FCA008:   8.ATOM                      0.017000       0.000707       0.000707 total forces
:FCA009:   9.ATOM                      0.029000       0.000000       0.081000 total forces
:FCA010:  10.ATOM                      0.030000       0.000000      -0.080000 total forces
:FCA011:  11.ATOM                      0.009000       0.000000      -0.001000 total forces
:FCA012:  12.ATOM                      0.010000       0.000000       0.001000 total forces
:FCA013:  13.ATOM                     -0.002000      -0.017678      -0.017678 total forces
:FCA014:  14.ATOM                     -0.004000       0.016971       0.016971 total forces
:FCA015:  15.ATOM                      0.213000       0.000000       0.000000 total forces
:FCA016:  16.ATOM                      0.195000       0.000000       0.000000 total forces
:FCA017:  17.ATOM                      0.014000       0.000000       0.000000 total forces
:FCA018:  18.ATOM                      0.013000       0.000000       0.000000 total forces
:FCA019:  19.ATOM                      0.011000       0.000000       0.000000 total forces
:FCA020:  20.ATOM                      0.012000       0.000000       0.000000 total forces
:FCA021:  21.ATOM                     -0.006000      -0.001000       0.000000 total forces
:FCA022:  22.ATOM                      0.075000       0.000000       0.000000 total forces
:FCA023:  23.ATOM                     -0.036000       0.001000       0.000000 total forces
:FCA024:  24.ATOM                      0.012000      -0.001000       0.000000 total forces

       TOTAL FORCE WITH RESPECT TO THE GLOBAL COORDINATE SYSTEM:
:FGL001:   1.ATOM                -0.780000000     0.000000000     0.000000000 total forces
:FGL002:   2.ATOM                 0.122000000     0.000000000     0.000000000 total forces
:FGL003:   3.ATOM                -0.003000000     0.000000000     0.000000000 total forces
:FGL004:   4.ATOM                 0.004000000     0.000000000     0.000000000 total forces
:FGL005:   5.ATOM                -0.007000000     0.000000000     0.000000000 total forces
:FGL006:   6.ATOM                 0.005000000     0.000000000     0.000000000 total forces
:FGL007:   7.ATOM                -0.022000000    -0.000707107    -0.000707107 total forces
:FGL008:   8.ATOM                 0.017000000     0.000707107     0.000707107 total forces
:FGL009:   9.ATOM                 0.029000000     0.000000000     0.081000000 total forces
:FGL010:  10.ATOM                 0.030000000     0.000000000    -0.080000000 total forces
:FGL011:  11.ATOM                 0.009000000     0.000000000    -0.001000000 total forces
:FGL012:  12.ATOM                 0.010000000     0.000000000     0.001000000 total forces
:FGL013:  13.ATOM                -0.002000000    -0.017677670    -0.017677670 total forces
:FGL014:  14.ATOM                -0.004000000     0.016970563     0.016970563 total forces
:FGL015:  15.ATOM                 0.213000000     0.000000000     0.000000000 total forces
:FGL016:  16.ATOM                 0.195000000     0.000000000     0.000000000 total forces
:FGL017:  17.ATOM                 0.014000000     0.000000000     0.000000000 total forces
:FGL018:  18.ATOM                 0.013000000     0.000000000     0.000000000 total forces
:FGL019:  19.ATOM                 0.011000000     0.000000000     0.000000000 total forces
:FGL020:  20.ATOM                 0.012000000     0.000000000     0.000000000 total forces
:FGL021:  21.ATOM                -0.006000000    -0.001000000     0.000000000 total forces
:FGL022:  22.ATOM                 0.075000000     0.000000000     0.000000000 total forces
:FGL023:  23.ATOM                -0.036000000     0.001000000     0.000000000 total forces
:FGL024:  24.ATOM                 0.012000000    -0.001000000     0.000000000 total forces
:FSUM  : Sum of forces Fx,Fy,Fz            0.27500            0.00000            0.00000
