
:LABEL1: Calculations in /home/togo/NaCl/NaCl-002
:LABEL2: on cologne at Fri May  6 15:52:20 JST 2011
:LABEL3: using WIEN2k_11.1 (Release 5/4/2011) in /usr/local/calc/WIEN2k_11


            ---------
:ITE027: 27. ITERATION
            ---------

:NATO :   24 INDEPENDENT AND   64 TOTAL ATOMS IN UNITCELL
       SUBSTANCE: Title                                                       

       LATTICE                      = P   
:POT  : POTENTIAL OPTION   13
:LAT  : LATTICE CONSTANTS= 21.50622 21.50622 21.50622    1.571    1.571    1.571
:VOL  : UNIT CELL VOLUME =    9947.00586
       MODE OF CALCULATION IS       = RELA
       NON-SPINPOLARIZED CALCULATION
:IFFT  : FFT-parameters:  180  180  180 Factor: 2.00
       ATOMNUMBER=  1 Na1        VCOUL-ZERO =  0.16074E+00
:EFG001:                        EFG         =    -0.00042   *10**21  V / m**2
                               V20  TOT/SRF=     0.00022     0.00002
                               V22  TOT/SRF=    -0.00029    -0.00006
                               V22M TOT/SRF=     0.00006     0.00001
                               V21  TOT/SRF=     0.00000     0.00000
                               V21M TOT/SRF=     0.00000     0.00000

             -0.00042    0.00006    0.00000       -0.00042    0.00000    0.00000
              0.00006    0.00016    0.00000        0.00000    0.00017    0.00000
              0.00000    0.00000    0.00025        0.00000    0.00000    0.00025

         MAIN DIRECTIONS OF THE EFG   1.0000  0.0975  0.0000
                                     -0.0975  1.0000  0.0000
                                      0.0000  0.0000  1.0000
:ANG001:  ANGLE WITH OLD X-AXIS =         5.6

:ETA001:                         ASYMM. ETA =     0.19549


       ATOMNUMBER=  2 Na2        VCOUL-ZERO =  0.16089E+00
:EFG002:                        EFG         =     0.00079   *10**21  V / m**2
                               V20  TOT/SRF=    -0.00025    -0.00002
                               V22  TOT/SRF=     0.00064     0.00005
                               V22M TOT/SRF=     0.00006     0.00001
                               V21  TOT/SRF=     0.00000     0.00000
                               V21M TOT/SRF=     0.00000     0.00000

              0.00078    0.00006    0.00000        0.00079    0.00000    0.00000
              0.00006   -0.00049    0.00000        0.00000   -0.00049    0.00000
              0.00000    0.00000   -0.00029        0.00000    0.00000   -0.00029

         MAIN DIRECTIONS OF THE EFG   1.0000 -0.0449  0.0000
                                      0.0449  1.0000  0.0000
                                      0.0000  0.0000  1.0000
:ANG002:  ANGLE WITH OLD X-AXIS =         2.6

:ETA002:                         ASYMM. ETA =     0.25417


       ATOMNUMBER=  3 Na3        VCOUL-ZERO =  0.16039E+00
:EFG003:                        EFG         =     0.01566   *10**21  V / m**2
                               V20  TOT/SRF=     0.01356     0.00004
                               V22  TOT/SRF=     0.00000     0.00000
                               V22M TOT/SRF=     0.00000     0.00000
                               V21  TOT/SRF=     0.00000     0.00000
                               V21M TOT/SRF=     0.00000     0.00000

             -0.00783    0.00000    0.00000       -0.00783    0.00000    0.00000
              0.00000   -0.00783    0.00000        0.00000   -0.00783    0.00000
              0.00000    0.00000    0.01566        0.00000    0.00000    0.01566

         MAIN DIRECTIONS OF THE EFG   1.0000  0.0000  0.0000
                                      0.0000  1.0000  0.0000
                                      0.0000  0.0000  1.0000
:ANG003:  ANGLE WITH OLD X-AXIS =         0.0

:ETA003:                         ASYMM. ETA =     0.00000


       ATOMNUMBER=  4 Na4        VCOUL-ZERO =  0.16127E+00
:EFG004:                        EFG         =    -0.01559   *10**21  V / m**2
                               V20  TOT/SRF=    -0.01350    -0.00002
                               V22  TOT/SRF=     0.00000     0.00000
                               V22M TOT/SRF=     0.00000     0.00000
                               V21  TOT/SRF=     0.00000     0.00000
                               V21M TOT/SRF=     0.00000     0.00000

              0.00780    0.00000    0.00000        0.00780    0.00000    0.00000
              0.00000    0.00780    0.00000        0.00000    0.00780    0.00000
              0.00000    0.00000   -0.01559        0.00000    0.00000   -0.01559

         MAIN DIRECTIONS OF THE EFG   1.0000  0.0000  0.0000
                                      0.0000  1.0000  0.0000
                                      0.0000  0.0000  1.0000
:ANG004:  ANGLE WITH OLD X-AXIS =         0.0

:ETA004:                         ASYMM. ETA =     0.00000


       ATOMNUMBER=  5 Na5        VCOUL-ZERO =  0.16074E+00
:EFG005:                        EFG         =     0.00104   *10**21  V / m**2
                               V20  TOT/SRF=    -0.00047    -0.00007
                               V22  TOT/SRF=    -0.00077    -0.00008
                               V22M TOT/SRF=     0.00000     0.00000
                               V21  TOT/SRF=     0.00000     0.00000
                               V21M TOT/SRF=     0.00000     0.00000

             -0.00050    0.00000    0.00000       -0.00050    0.00000    0.00000
              0.00000    0.00104    0.00000        0.00000    0.00104    0.00000
              0.00000    0.00000   -0.00055        0.00000    0.00000   -0.00055

         MAIN DIRECTIONS OF THE EFG   1.0000  0.0000  0.0000
                                      0.0000  1.0000  0.0000
                                      0.0000  0.0000  1.0000
:ANG005:  ANGLE WITH OLD X-AXIS =         0.0

:ETA005:                         ASYMM. ETA =     0.04697


       ATOMNUMBER=  6 Na6        VCOUL-ZERO =  0.16091E+00
:EFG006:                        EFG         =    -0.00123   *10**21  V / m**2
                               V20  TOT/SRF=     0.00081     0.00006
                               V22  TOT/SRF=     0.00077     0.00008
                               V22M TOT/SRF=     0.00000     0.00000
                               V21  TOT/SRF=     0.00000     0.00000
                               V21M TOT/SRF=     0.00000     0.00000

              0.00030    0.00000    0.00000        0.00030    0.00000    0.00000
              0.00000   -0.00123    0.00000        0.00000   -0.00123    0.00000
              0.00000    0.00000    0.00093        0.00000    0.00000    0.00093

         MAIN DIRECTIONS OF THE EFG   1.0000  0.0000  0.0000
                                      0.0000  1.0000  0.0000
                                      0.0000  0.0000  1.0000
:ANG006:  ANGLE WITH OLD X-AXIS =         0.0

:ETA006:                         ASYMM. ETA =     0.51260


       ATOMNUMBER=  7 Na7        VCOUL-ZERO =  0.16079E+00
:EFG007:                        EFG         =    -0.00003   *10**21  V / m**2
                               V20  TOT/SRF=    -0.00003    -0.00002
                               V22  TOT/SRF=     0.00000     0.00000
                               V22M TOT/SRF=     0.00000     0.00000
                               V21  TOT/SRF=     0.00000     0.00000
                               V21M TOT/SRF=     0.00000     0.00000

              0.00002    0.00000    0.00000        0.00002    0.00000    0.00000
              0.00000    0.00002    0.00000        0.00000    0.00002    0.00000
              0.00000    0.00000   -0.00003        0.00000    0.00000   -0.00003

         MAIN DIRECTIONS OF THE EFG   1.0000  0.0000  0.0000
                                      0.0000  1.0000  0.0000
                                      0.0000  0.0000  1.0000
:ANG007:  ANGLE WITH OLD X-AXIS =         0.0

:ETA007:                         ASYMM. ETA =     0.00000


       ATOMNUMBER=  8 Na8        VCOUL-ZERO =  0.16085E+00
:EFG008:                        EFG         =     0.00044   *10**21  V / m**2
                               V20  TOT/SRF=     0.00038     0.00002
                               V22  TOT/SRF=     0.00000     0.00000
                               V22M TOT/SRF=     0.00000     0.00000
                               V21  TOT/SRF=     0.00000     0.00000
                               V21M TOT/SRF=     0.00000     0.00000

             -0.00022    0.00000    0.00000       -0.00022    0.00000    0.00000
              0.00000   -0.00022    0.00000        0.00000   -0.00022    0.00000
              0.00000    0.00000    0.00044        0.00000    0.00000    0.00044

         MAIN DIRECTIONS OF THE EFG   1.0000  0.0000  0.0000
                                      0.0000  1.0000  0.0000
                                      0.0000  0.0000  1.0000
:ANG008:  ANGLE WITH OLD X-AXIS =         0.0

:ETA008:                         ASYMM. ETA =     0.00000


       ATOMNUMBER=  9 Na9        VCOUL-ZERO =  0.16082E+00
:EFG009:                        EFG         =     0.00019   *10**21  V / m**2
                               V20  TOT/SRF=     0.00017     0.00000
                               V22  TOT/SRF=    -0.00001     0.00000
                               V22M TOT/SRF=     0.00002     0.00000
                               V21  TOT/SRF=     0.00000     0.00000
                               V21M TOT/SRF=     0.00000     0.00000

             -0.00011    0.00002    0.00000       -0.00012    0.00000    0.00000
              0.00002   -0.00009    0.00000        0.00000   -0.00008    0.00000
              0.00000    0.00000    0.00019        0.00000    0.00000    0.00019

         MAIN DIRECTIONS OF THE EFG   1.0000  0.5482  0.0000
                                     -0.5482  1.0000  0.0000
                                      0.0000  0.0000  1.0000
:ANG009:  ANGLE WITH OLD X-AXIS =        28.7

:ETA009:                         ASYMM. ETA =     0.19857


       ATOMNUMBER= 10 Na10       VCOUL-ZERO =  0.16082E+00
:EFG010:                        EFG         =    -0.00341   *10**21  V / m**2
                               V20  TOT/SRF=     0.00017     0.00000
                               V22  TOT/SRF=    -0.00003     0.00000
                               V22M TOT/SRF=    -0.00331    -0.00024
                               V21  TOT/SRF=     0.00000     0.00000
                               V21M TOT/SRF=     0.00000     0.00000

             -0.00013   -0.00331    0.00000       -0.00341    0.00000    0.00000
             -0.00331   -0.00006    0.00000        0.00000    0.00322    0.00000
              0.00000    0.00000    0.00019        0.00000    0.00000    0.00019

         MAIN DIRECTIONS OF THE EFG   1.0000 -0.9896  0.0000
                                      0.9896  1.0000  0.0000
                                      0.0000  0.0000  1.0000
:ANG010:  ANGLE WITH OLD X-AXIS =        44.7

:ETA010:                         ASYMM. ETA =     0.88793


       ATOMNUMBER= 11 Na11       VCOUL-ZERO =  0.16082E+00
:EFG011:                        EFG         =     0.00020   *10**21  V / m**2
                               V20  TOT/SRF=     0.00018     0.00000
                               V22  TOT/SRF=    -0.00001     0.00000
                               V22M TOT/SRF=    -0.00008    -0.00001
                               V21  TOT/SRF=     0.00000     0.00000
                               V21M TOT/SRF=     0.00000     0.00000

             -0.00011   -0.00008    0.00000       -0.00018    0.00000    0.00000
             -0.00008   -0.00010    0.00000        0.00000   -0.00002    0.00000
              0.00000    0.00000    0.00020        0.00000    0.00000    0.00020

         MAIN DIRECTIONS OF THE EFG   1.0000 -0.9337  0.0000
                                      0.9337  1.0000  0.0000
                                      0.0000  0.0000  1.0000
:ANG011:  ANGLE WITH OLD X-AXIS =        43.0

:ETA011:                         ASYMM. ETA =     0.81053


       ATOMNUMBER= 12 Na12       VCOUL-ZERO =  0.16082E+00
:EFG012:                        EFG         =     0.00019   *10**21  V / m**2
                               V20  TOT/SRF=     0.00017     0.00000
                               V22  TOT/SRF=    -0.00001     0.00000
                               V22M TOT/SRF=    -0.00002     0.00000
                               V21  TOT/SRF=     0.00000     0.00000
                               V21M TOT/SRF=     0.00000     0.00000

             -0.00011   -0.00002    0.00000       -0.00012    0.00000    0.00000
             -0.00002   -0.00009    0.00000        0.00000   -0.00008    0.00000
              0.00000    0.00000    0.00019        0.00000    0.00000    0.00019

         MAIN DIRECTIONS OF THE EFG   1.0000 -0.5510  0.0000
                                      0.5510  1.0000  0.0000
                                      0.0000  0.0000  1.0000
:ANG012:  ANGLE WITH OLD X-AXIS =        28.9

:ETA012:                         ASYMM. ETA =     0.21764


       ATOMNUMBER= 13 Cl13       VCOUL-ZERO =  0.24803E+00
:EFG013:                        EFG         =     0.00000   *10**21  V / m**2
                               V20  TOT/SRF=     0.00000     0.00003
                               V22  TOT/SRF=     0.00000     0.00000
                               V22M TOT/SRF=     0.00000     0.00000
                               V21  TOT/SRF=     0.00000     0.00000
                               V21M TOT/SRF=     0.00000     0.00000

              0.00000    0.00000    0.00000        0.00000    0.00000    0.00000
              0.00000    0.00000    0.00000        0.00000    0.00000    0.00000
              0.00000    0.00000    0.00000        0.00000    0.00000    0.00000

         MAIN DIRECTIONS OF THE EFG   1.0000  0.0000  0.0000
                                      0.0000  1.0000  0.0000
                                      0.0000  0.0000  1.0000
:ANG013:  ANGLE WITH OLD X-AXIS =         0.0

:ETA013:                         ASYMM. ETA =     0.00000


       ATOMNUMBER= 14 Cl14       VCOUL-ZERO =  0.24803E+00
:EFG014:                        EFG         =     0.00051   *10**21  V / m**2
                               V20  TOT/SRF=     0.00044     0.00000
                               V22  TOT/SRF=     0.00000     0.00000
                               V22M TOT/SRF=     0.00000     0.00000
                               V21  TOT/SRF=     0.00000     0.00000
                               V21M TOT/SRF=     0.00000     0.00000

             -0.00025    0.00000    0.00000       -0.00025    0.00000    0.00000
              0.00000   -0.00025    0.00000        0.00000   -0.00025    0.00000
              0.00000    0.00000    0.00051        0.00000    0.00000    0.00051

         MAIN DIRECTIONS OF THE EFG   1.0000  0.0000  0.0000
                                      0.0000  1.0000  0.0000
                                      0.0000  0.0000  1.0000
:ANG014:  ANGLE WITH OLD X-AXIS =         0.0

:ETA014:                         ASYMM. ETA =     0.00000


       ATOMNUMBER= 15 Cl15       VCOUL-ZERO =  0.24803E+00
:EFG015:                        EFG         =     0.00023   *10**21  V / m**2
                               V20  TOT/SRF=     0.00020     0.00000
                               V22  TOT/SRF=    -0.00008     0.00000
                               V22M TOT/SRF=     0.00000     0.00000
                               V21  TOT/SRF=     0.00000     0.00000
                               V21M TOT/SRF=     0.00000     0.00000

             -0.00019    0.00000    0.00000       -0.00019    0.00000    0.00000
              0.00000   -0.00004    0.00000        0.00000   -0.00004    0.00000
              0.00000    0.00000    0.00023        0.00000    0.00000    0.00023

         MAIN DIRECTIONS OF THE EFG   1.0000  0.0000  0.0000
                                      0.0000  1.0000  0.0000
                                      0.0000  0.0000  1.0000
:ANG015:  ANGLE WITH OLD X-AXIS =         0.0

:ETA015:                         ASYMM. ETA =     0.65825


       ATOMNUMBER= 16 Cl16       VCOUL-ZERO =  0.24803E+00
:EFG016:                        EFG         =     0.00024   *10**21  V / m**2
                               V20  TOT/SRF=     0.00021     0.00000
                               V22  TOT/SRF=    -0.00007     0.00000
                               V22M TOT/SRF=     0.00000     0.00000
                               V21  TOT/SRF=     0.00000     0.00000
                               V21M TOT/SRF=     0.00000     0.00000

             -0.00019    0.00000    0.00000       -0.00019    0.00000    0.00000
              0.00000   -0.00005    0.00000        0.00000   -0.00005    0.00000
              0.00000    0.00000    0.00024        0.00000    0.00000    0.00024

         MAIN DIRECTIONS OF THE EFG   1.0000  0.0000  0.0000
                                      0.0000  1.0000  0.0000
                                      0.0000  0.0000  1.0000
:ANG016:  ANGLE WITH OLD X-AXIS =         0.0

:ETA016:                         ASYMM. ETA =     0.59318


       ATOMNUMBER= 17 Cl17       VCOUL-ZERO =  0.24802E+00
:EFG017:                        EFG         =    -0.00003   *10**21  V / m**2
                               V20  TOT/SRF=    -0.00003     0.00000
                               V22  TOT/SRF=     0.00000     0.00000
                               V22M TOT/SRF=     0.00000     0.00000
                               V21  TOT/SRF=     0.00000     0.00000
                               V21M TOT/SRF=     0.00000     0.00000

              0.00002    0.00000    0.00000        0.00002    0.00000    0.00000
              0.00000    0.00002    0.00000        0.00000    0.00002    0.00000
              0.00000    0.00000   -0.00003        0.00000    0.00000   -0.00003

         MAIN DIRECTIONS OF THE EFG   1.0000  0.0000  0.0000
                                      0.0000  1.0000  0.0000
                                      0.0000  0.0000  1.0000
:ANG017:  ANGLE WITH OLD X-AXIS =         0.0

:ETA017:                         ASYMM. ETA =     0.00000


       ATOMNUMBER= 18 Cl18       VCOUL-ZERO =  0.24802E+00
:EFG018:                        EFG         =    -0.00002   *10**21  V / m**2
                               V20  TOT/SRF=    -0.00002     0.00000
                               V22  TOT/SRF=     0.00000     0.00000
                               V22M TOT/SRF=     0.00000     0.00000
                               V21  TOT/SRF=     0.00000     0.00000
                               V21M TOT/SRF=     0.00000     0.00000

              0.00001    0.00000    0.00000        0.00001    0.00000    0.00000
              0.00000    0.00001    0.00000        0.00000    0.00001    0.00000
              0.00000    0.00000   -0.00002        0.00000    0.00000   -0.00002

         MAIN DIRECTIONS OF THE EFG   1.0000  0.0000  0.0000
                                      0.0000  1.0000  0.0000
                                      0.0000  0.0000  1.0000
:ANG018:  ANGLE WITH OLD X-AXIS =         0.0

:ETA018:                         ASYMM. ETA =     0.00000


       ATOMNUMBER= 19 Cl19       VCOUL-ZERO =  0.24802E+00
:EFG019:                        EFG         =    -0.00410   *10**21  V / m**2
                               V20  TOT/SRF=     0.00029     0.00000
                               V22  TOT/SRF=    -0.00055     0.00000
                               V22M TOT/SRF=    -0.00389    -0.00006
                               V21  TOT/SRF=     0.00000     0.00000
                               V21M TOT/SRF=     0.00000     0.00000

             -0.00072   -0.00389    0.00000       -0.00410    0.00000    0.00000
             -0.00389    0.00038    0.00000        0.00000    0.00376    0.00000
              0.00000    0.00000    0.00034        0.00000    0.00000    0.00034

         MAIN DIRECTIONS OF THE EFG   1.0000 -0.8691  0.0000
                                      0.8691  1.0000  0.0000
                                      0.0000  0.0000  1.0000
:ANG019:  ANGLE WITH OLD X-AXIS =        41.0

:ETA019:                         ASYMM. ETA =     0.83559


       ATOMNUMBER= 20 Cl20       VCOUL-ZERO =  0.24802E+00
:EFG020:                        EFG         =    -0.00153   *10**21  V / m**2
                               V20  TOT/SRF=     0.00030     0.00000
                               V22  TOT/SRF=    -0.00052     0.00000
                               V22M TOT/SRF=     0.00125     0.00002
                               V21  TOT/SRF=     0.00000     0.00000
                               V21M TOT/SRF=     0.00000     0.00000

             -0.00069    0.00125    0.00000       -0.00153    0.00000    0.00000
              0.00125    0.00035    0.00000        0.00000    0.00118    0.00000
              0.00000    0.00000    0.00035        0.00000    0.00000    0.00035

         MAIN DIRECTIONS OF THE EFG   1.0000  0.6663  0.0000
                                     -0.6663  1.0000  0.0000
                                      0.0000  0.0000  1.0000
:ANG020:  ANGLE WITH OLD X-AXIS =        33.7

:ETA020:                         ASYMM. ETA =     0.54529


       ATOMNUMBER= 21 Cl21       VCOUL-ZERO =  0.24783E+00
:EFG021:                        EFG         =     0.01206   *10**21  V / m**2
                               V20  TOT/SRF=    -0.00527    -0.00005
                               V22  TOT/SRF=     0.00361     0.00005
                               V22M TOT/SRF=     0.00827     0.00009
                               V21  TOT/SRF=     0.00000     0.00000
                               V21M TOT/SRF=     0.00000     0.00000

              0.00666    0.00827    0.00000        0.01206    0.00000    0.00000
              0.00827   -0.00057    0.00000        0.00000   -0.00598    0.00000
              0.00000    0.00000   -0.00609        0.00000    0.00000   -0.00609

         MAIN DIRECTIONS OF THE EFG   1.0000 -0.6543  0.0000
                                      0.6543  1.0000  0.0000
                                      0.0000  0.0000  1.0000
:ANG021:  ANGLE WITH OLD X-AXIS =        33.2

:ETA021:                         ASYMM. ETA =     0.00891


       ATOMNUMBER= 22 Cl22       VCOUL-ZERO =  0.24822E+00
:EFG022:                        EFG         =    -0.01172   *10**21  V / m**2
                               V20  TOT/SRF=     0.00435     0.00006
                               V22  TOT/SRF=    -0.00400    -0.00005
                               V22M TOT/SRF=     0.00830     0.00009
                               V21  TOT/SRF=     0.00000     0.00000
                               V21M TOT/SRF=     0.00000     0.00000

             -0.00651    0.00830    0.00000       -0.01172    0.00000    0.00000
              0.00830    0.00148    0.00000        0.00000    0.00670    0.00000
              0.00000    0.00000    0.00503        0.00000    0.00000    0.00503

         MAIN DIRECTIONS OF THE EFG   1.0000  0.6284  0.0000
                                     -0.6284  1.0000  0.0000
                                      0.0000  0.0000  1.0000
:ANG022:  ANGLE WITH OLD X-AXIS =        32.1

:ETA022:                         ASYMM. ETA =     0.14261


       ATOMNUMBER= 23 Cl23       VCOUL-ZERO =  0.24799E+00
:EFG023:                        EFG         =     0.00079   *10**21  V / m**2
                               V20  TOT/SRF=    -0.00004     0.00001
                               V22  TOT/SRF=     0.00077     0.00002
                               V22M TOT/SRF=    -0.00004     0.00000
                               V21  TOT/SRF=     0.00000     0.00000
                               V21M TOT/SRF=     0.00000     0.00000

              0.00079   -0.00004    0.00000        0.00079    0.00000    0.00000
             -0.00004   -0.00074    0.00000        0.00000   -0.00074    0.00000
              0.00000    0.00000   -0.00005        0.00000    0.00000   -0.00005

         MAIN DIRECTIONS OF THE EFG   1.0000  0.0243  0.0000
                                     -0.0243  1.0000  0.0000
                                      0.0000  0.0000  1.0000
:ANG023:  ANGLE WITH OLD X-AXIS =         1.4

:ETA023:                         ASYMM. ETA =     0.88449


       ATOMNUMBER= 24 Cl24       VCOUL-ZERO =  0.24807E+00
:EFG024:                        EFG         =     0.00174   *10**21  V / m**2
                               V20  TOT/SRF=    -0.00107    -0.00001
                               V22  TOT/SRF=    -0.00112    -0.00001
                               V22M TOT/SRF=    -0.00004     0.00000
                               V21  TOT/SRF=     0.00000     0.00000
                               V21M TOT/SRF=     0.00000     0.00000

             -0.00050   -0.00004    0.00000       -0.00050    0.00000    0.00000
             -0.00004    0.00174    0.00000        0.00000    0.00174    0.00000
              0.00000    0.00000   -0.00124        0.00000    0.00000   -0.00124

         MAIN DIRECTIONS OF THE EFG   1.0000 -0.0169  0.0000
                                      0.0169  1.0000  0.0000
                                      0.0000  0.0000  1.0000
:ANG024:  ANGLE WITH OLD X-AXIS =         1.0

:ETA024:                         ASYMM. ETA =     0.42176


     HELLMANN-FEYNMAN-FORCE IN mRy/a.u. = |F|  Fx       Fy             Fz
:FHF001:   1.ATOM          0.217          0.013          0.217          0.000

     HELLMANN-FEYNMAN-FORCE IN mRy/a.u. = |F|  Fx       Fy             Fz
:FHF002:   2.ATOM          0.227          0.012         -0.227          0.000

     HELLMANN-FEYNMAN-FORCE IN mRy/a.u. = |F|  Fx       Fy             Fz
:FHF003:   3.ATOM          2.793          0.000          0.000         -2.793

     HELLMANN-FEYNMAN-FORCE IN mRy/a.u. = |F|  Fx       Fy             Fz
:FHF004:   4.ATOM          2.809          0.000          0.000         -2.809

     HELLMANN-FEYNMAN-FORCE IN mRy/a.u. = |F|  Fx       Fy             Fz
:FHF005:   5.ATOM          0.020          0.000          0.000          0.020

     HELLMANN-FEYNMAN-FORCE IN mRy/a.u. = |F|  Fx       Fy             Fz
:FHF006:   6.ATOM          0.021          0.000          0.000          0.021

     HELLMANN-FEYNMAN-FORCE IN mRy/a.u. = |F|  Fx       Fy             Fz
:FHF007:   7.ATOM          0.001          0.000          0.000         -0.001

     HELLMANN-FEYNMAN-FORCE IN mRy/a.u. = |F|  Fx       Fy             Fz
:FHF008:   8.ATOM          0.001          0.000          0.000         -0.001

     HELLMANN-FEYNMAN-FORCE IN mRy/a.u. = |F|  Fx       Fy             Fz
:FHF009:   9.ATOM          0.087         -0.079          0.036          0.000

     HELLMANN-FEYNMAN-FORCE IN mRy/a.u. = |F|  Fx       Fy             Fz
:FHF010:  10.ATOM          0.877          0.877          0.030          0.000

     HELLMANN-FEYNMAN-FORCE IN mRy/a.u. = |F|  Fx       Fy             Fz
:FHF011:  11.ATOM          0.398         -0.396          0.035          0.000

     HELLMANN-FEYNMAN-FORCE IN mRy/a.u. = |F|  Fx       Fy             Fz
:FHF012:  12.ATOM          0.082          0.073          0.036          0.000

     HELLMANN-FEYNMAN-FORCE IN mRy/a.u. = |F|  Fx       Fy             Fz
:FHF013:  13.ATOM          1.365          0.000          0.000          1.365

     HELLMANN-FEYNMAN-FORCE IN mRy/a.u. = |F|  Fx       Fy             Fz
:FHF014:  14.ATOM          0.417          0.000          0.000         -0.417

     HELLMANN-FEYNMAN-FORCE IN mRy/a.u. = |F|  Fx       Fy             Fz
:FHF015:  15.ATOM          0.171          0.000          0.000          0.171

     HELLMANN-FEYNMAN-FORCE IN mRy/a.u. = |F|  Fx       Fy             Fz
:FHF016:  16.ATOM          0.207          0.000          0.000         -0.207

     HELLMANN-FEYNMAN-FORCE IN mRy/a.u. = |F|  Fx       Fy             Fz
:FHF017:  17.ATOM          0.057          0.000          0.000          0.057

     HELLMANN-FEYNMAN-FORCE IN mRy/a.u. = |F|  Fx       Fy             Fz
:FHF018:  18.ATOM          0.057          0.000          0.000         -0.057

     HELLMANN-FEYNMAN-FORCE IN mRy/a.u. = |F|  Fx       Fy             Fz
:FHF019:  19.ATOM          0.255         -0.255         -0.004          0.000

     HELLMANN-FEYNMAN-FORCE IN mRy/a.u. = |F|  Fx       Fy             Fz
:FHF020:  20.ATOM          0.170          0.170         -0.006          0.000

     HELLMANN-FEYNMAN-FORCE IN mRy/a.u. = |F|  Fx       Fy             Fz
:FHF021:  21.ATOM          0.655         -0.553         -0.351          0.000

     HELLMANN-FEYNMAN-FORCE IN mRy/a.u. = |F|  Fx       Fy             Fz
:FHF022:  22.ATOM          0.646          0.542         -0.351          0.000

     HELLMANN-FEYNMAN-FORCE IN mRy/a.u. = |F|  Fx       Fy             Fz
:FHF023:  23.ATOM          0.070         -0.070          0.004          0.000

     HELLMANN-FEYNMAN-FORCE IN mRy/a.u. = |F|  Fx       Fy             Fz
:FHF024:  24.ATOM          0.054          0.054          0.005          0.000

:FIT001: LUSE= 13 SIGMA OF V-XC FIT FOR ATOM  1  0.1662962E-01
:FIT001: LUSE= 13 SIGMA OF V-XC FIT FOR ATOM  1  0.1662962E-01
:FIT002: LUSE= 13 SIGMA OF V-XC FIT FOR ATOM  2  0.1662605E-01
:FIT002: LUSE= 13 SIGMA OF V-XC FIT FOR ATOM  2  0.1662605E-01
:FIT003: LUSE= 13 SIGMA OF V-XC FIT FOR ATOM  3  0.1997669E-01
:FIT003: LUSE= 13 SIGMA OF V-XC FIT FOR ATOM  3  0.1997669E-01
:FIT004: LUSE= 13 SIGMA OF V-XC FIT FOR ATOM  4  0.1974617E-01
:FIT004: LUSE= 13 SIGMA OF V-XC FIT FOR ATOM  4  0.1974617E-01
:FIT005: LUSE= 13 SIGMA OF V-XC FIT FOR ATOM  5  0.1986518E-01
:FIT005: LUSE= 13 SIGMA OF V-XC FIT FOR ATOM  5  0.1986518E-01
:FIT006: LUSE= 13 SIGMA OF V-XC FIT FOR ATOM  6  0.1985984E-01
:FIT006: LUSE= 13 SIGMA OF V-XC FIT FOR ATOM  6  0.1985984E-01
:FIT007: LUSE= 13 SIGMA OF V-XC FIT FOR ATOM  7  0.1986595E-01
:FIT007: LUSE= 13 SIGMA OF V-XC FIT FOR ATOM  7  0.1986595E-01
:FIT008: LUSE= 13 SIGMA OF V-XC FIT FOR ATOM  8  0.1986699E-01
:FIT008: LUSE= 13 SIGMA OF V-XC FIT FOR ATOM  8  0.1986699E-01
:FIT009: LUSE= 13 SIGMA OF V-XC FIT FOR ATOM  9  0.1986254E-01
:FIT009: LUSE= 13 SIGMA OF V-XC FIT FOR ATOM  9  0.1986254E-01
:FIT010: LUSE= 13 SIGMA OF V-XC FIT FOR ATOM 10  0.1986125E-01
:FIT010: LUSE= 13 SIGMA OF V-XC FIT FOR ATOM 10  0.1986125E-01
:FIT011: LUSE= 13 SIGMA OF V-XC FIT FOR ATOM 11  0.1986255E-01
:FIT011: LUSE= 13 SIGMA OF V-XC FIT FOR ATOM 11  0.1986255E-01
:FIT012: LUSE= 13 SIGMA OF V-XC FIT FOR ATOM 12  0.1986254E-01
:FIT012: LUSE= 13 SIGMA OF V-XC FIT FOR ATOM 12  0.1986254E-01
:FIT013: LUSE= 13 SIGMA OF V-XC FIT FOR ATOM 13  0.9222959E-04
:FIT013: LUSE= 13 SIGMA OF V-XC FIT FOR ATOM 13  0.9222959E-04
:FIT014: LUSE= 13 SIGMA OF V-XC FIT FOR ATOM 14  0.9209387E-04
:FIT014: LUSE= 13 SIGMA OF V-XC FIT FOR ATOM 14  0.9209387E-04
:FIT015: LUSE= 13 SIGMA OF V-XC FIT FOR ATOM 15  0.9212672E-04
:FIT015: LUSE= 13 SIGMA OF V-XC FIT FOR ATOM 15  0.9212672E-04
:FIT016: LUSE= 13 SIGMA OF V-XC FIT FOR ATOM 16  0.9212669E-04
:FIT016: LUSE= 13 SIGMA OF V-XC FIT FOR ATOM 16  0.9212669E-04
:FIT017: LUSE= 13 SIGMA OF V-XC FIT FOR ATOM 17  0.9215943E-04
:FIT017: LUSE= 13 SIGMA OF V-XC FIT FOR ATOM 17  0.9215943E-04
:FIT018: LUSE= 13 SIGMA OF V-XC FIT FOR ATOM 18  0.9215943E-04
:FIT018: LUSE= 13 SIGMA OF V-XC FIT FOR ATOM 18  0.9215943E-04
:FIT019: LUSE= 13 SIGMA OF V-XC FIT FOR ATOM 19  0.9211889E-04
:FIT019: LUSE= 13 SIGMA OF V-XC FIT FOR ATOM 19  0.9211889E-04
:FIT020: LUSE= 13 SIGMA OF V-XC FIT FOR ATOM 20  0.9211876E-04
:FIT020: LUSE= 13 SIGMA OF V-XC FIT FOR ATOM 20  0.9211876E-04
:FIT021: LUSE= 13 SIGMA OF V-XC FIT FOR ATOM 21  0.9216622E-04
:FIT021: LUSE= 13 SIGMA OF V-XC FIT FOR ATOM 21  0.9216622E-04
:FIT022: LUSE= 13 SIGMA OF V-XC FIT FOR ATOM 22  0.9209915E-04
:FIT022: LUSE= 13 SIGMA OF V-XC FIT FOR ATOM 22  0.9209915E-04
:FIT023: LUSE= 13 SIGMA OF V-XC FIT FOR ATOM 23  0.9212732E-04
:FIT023: LUSE= 13 SIGMA OF V-XC FIT FOR ATOM 23  0.9212732E-04
:FIT024: LUSE= 13 SIGMA OF V-XC FIT FOR ATOM 24  0.9213469E-04
:FIT024: LUSE= 13 SIGMA OF V-XC FIT FOR ATOM 24  0.9213469E-04
:DEN  : DENSITY INTEGRAL  =        -17782.20315544   (Ry)
       ELS_POTENTIAL_AT Z=0 and Z=0.5:   0.00000   0.00000
       ELS_POTENTIAL_AT Y=0 and Y=0.5:  -0.94486  -0.94486
:VZERO:v0,v0c,v0x  -0.53070   0.00000  -0.53070 v5,v5c,v5x  -0.53070   0.00000  -0.53070
:VZERY:v0,v0c,v0x  -1.71492  -0.94486  -0.77006 v5,v5c,v5x  -1.71492  -0.94486  -0.77006
:VZERX:v0,v0c,v0x  -1.12293  -0.47255  -0.65038 v5,v5c,v5x  -1.12268  -0.47230  -0.65037

          ATOMIC SPHERE DEPENDENT PARAMETERS FOR ATOM  Na1       
:e__0001: OVERALL ENERGY PARAMETER IS   -0.3432
          OVERALL BASIS SET ON ATOM IS LAPW
:E0_0001: E( 0)=   -0.3432
             APW+lo
:E0_0001: E( 0)=   -3.7410   E(BOTTOM)=   -3.760   E(TOP)=   -3.722
             LOCAL ORBITAL
:E1_0001: E( 1)=   -1.6850   E(BOTTOM)=   -1.738   E(TOP)=   -1.632
             APW+lo
:E1_0001: E( 1)=   -0.3432
             LOCAL ORBITAL

          ATOMIC SPHERE DEPENDENT PARAMETERS FOR ATOM  Na2       
:e__0002: OVERALL ENERGY PARAMETER IS   -0.3432
          OVERALL BASIS SET ON ATOM IS LAPW
:E0_0002: E( 0)=   -0.3432
             APW+lo
:E0_0002: E( 0)=   -3.7405   E(BOTTOM)=   -3.759   E(TOP)=   -3.722
             LOCAL ORBITAL
:E1_0002: E( 1)=   -1.6850   E(BOTTOM)=   -1.738   E(TOP)=   -1.632
             APW+lo
:E1_0002: E( 1)=   -0.3432
             LOCAL ORBITAL

          ATOMIC SPHERE DEPENDENT PARAMETERS FOR ATOM  Na3       
:e__0003: OVERALL ENERGY PARAMETER IS   -0.3432
          OVERALL BASIS SET ON ATOM IS LAPW
:E0_0003: E( 0)=   -0.3432
             APW+lo
:E0_0003: E( 0)=   -3.7410   E(BOTTOM)=   -3.760   E(TOP)=   -3.722
             LOCAL ORBITAL
:E1_0003: E( 1)=   -1.6850   E(BOTTOM)=   -1.738   E(TOP)=   -1.632
             APW+lo
:E1_0003: E( 1)=   -0.3432
             LOCAL ORBITAL

          ATOMIC SPHERE DEPENDENT PARAMETERS FOR ATOM  Na4       
:e__0004: OVERALL ENERGY PARAMETER IS   -0.3432
          OVERALL BASIS SET ON ATOM IS LAPW
:E0_0004: E( 0)=   -0.3432
             APW+lo
:E0_0004: E( 0)=   -3.7400   E(BOTTOM)=   -3.759   E(TOP)=   -3.721
             LOCAL ORBITAL
:E1_0004: E( 1)=   -1.6850   E(BOTTOM)=   -1.738   E(TOP)=   -1.632
             APW+lo
:E1_0004: E( 1)=   -0.3432
             LOCAL ORBITAL

          ATOMIC SPHERE DEPENDENT PARAMETERS FOR ATOM  Na5       
:e__0005: OVERALL ENERGY PARAMETER IS   -0.3432
          OVERALL BASIS SET ON ATOM IS LAPW
:E0_0005: E( 0)=   -0.3432
             APW+lo
:E0_0005: E( 0)=   -3.7410   E(BOTTOM)=   -3.760   E(TOP)=   -3.722
             LOCAL ORBITAL
:E1_0005: E( 1)=   -1.6850   E(BOTTOM)=   -1.738   E(TOP)=   -1.632
             APW+lo
:E1_0005: E( 1)=   -0.3432
             LOCAL ORBITAL

          ATOMIC SPHERE DEPENDENT PARAMETERS FOR ATOM  Na6       
:e__0006: OVERALL ENERGY PARAMETER IS   -0.3432
          OVERALL BASIS SET ON ATOM IS LAPW
:E0_0006: E( 0)=   -0.3432
             APW+lo
:E0_0006: E( 0)=   -3.7405   E(BOTTOM)=   -3.759   E(TOP)=   -3.722
             LOCAL ORBITAL
:E1_0006: E( 1)=   -1.6850   E(BOTTOM)=   -1.738   E(TOP)=   -1.632
             APW+lo
:E1_0006: E( 1)=   -0.3432
             LOCAL ORBITAL

          ATOMIC SPHERE DEPENDENT PARAMETERS FOR ATOM  Na7       
:e__0007: OVERALL ENERGY PARAMETER IS   -0.3432
          OVERALL BASIS SET ON ATOM IS LAPW
:E0_0007: E( 0)=   -0.3432
             APW+lo
:E0_0007: E( 0)=   -3.7410   E(BOTTOM)=   -3.760   E(TOP)=   -3.722
             LOCAL ORBITAL
:E1_0007: E( 1)=   -1.6850   E(BOTTOM)=   -1.738   E(TOP)=   -1.632
             APW+lo
:E1_0007: E( 1)=   -0.3432
             LOCAL ORBITAL

          ATOMIC SPHERE DEPENDENT PARAMETERS FOR ATOM  Na8       
:e__0008: OVERALL ENERGY PARAMETER IS   -0.3432
          OVERALL BASIS SET ON ATOM IS LAPW
:E0_0008: E( 0)=   -0.3432
             APW+lo
:E0_0008: E( 0)=   -3.7410   E(BOTTOM)=   -3.760   E(TOP)=   -3.722
             LOCAL ORBITAL
:E1_0008: E( 1)=   -1.6850   E(BOTTOM)=   -1.738   E(TOP)=   -1.632
             APW+lo
:E1_0008: E( 1)=   -0.3432
             LOCAL ORBITAL

          ATOMIC SPHERE DEPENDENT PARAMETERS FOR ATOM  Na9       
:e__0009: OVERALL ENERGY PARAMETER IS   -0.3432
          OVERALL BASIS SET ON ATOM IS LAPW
:E0_0009: E( 0)=   -0.3432
             APW+lo
:E0_0009: E( 0)=   -3.7410   E(BOTTOM)=   -3.760   E(TOP)=   -3.722
             LOCAL ORBITAL
:E1_0009: E( 1)=   -1.6850   E(BOTTOM)=   -1.738   E(TOP)=   -1.632
             APW+lo
:E1_0009: E( 1)=   -0.3432
             LOCAL ORBITAL

          ATOMIC SPHERE DEPENDENT PARAMETERS FOR ATOM  Na10      
:e__0010: OVERALL ENERGY PARAMETER IS   -0.3432
          OVERALL BASIS SET ON ATOM IS LAPW
:E0_0010: E( 0)=   -0.3432
             APW+lo
:E0_0010: E( 0)=   -3.7410   E(BOTTOM)=   -3.760   E(TOP)=   -3.722
             LOCAL ORBITAL
:E1_0010: E( 1)=   -1.6850   E(BOTTOM)=   -1.738   E(TOP)=   -1.632
             APW+lo
:E1_0010: E( 1)=   -0.3432
             LOCAL ORBITAL

          ATOMIC SPHERE DEPENDENT PARAMETERS FOR ATOM  Na11      
:e__0011: OVERALL ENERGY PARAMETER IS   -0.3432
          OVERALL BASIS SET ON ATOM IS LAPW
:E0_0011: E( 0)=   -0.3432
             APW+lo
:E0_0011: E( 0)=   -3.7410   E(BOTTOM)=   -3.760   E(TOP)=   -3.722
             LOCAL ORBITAL
:E1_0011: E( 1)=   -1.6850   E(BOTTOM)=   -1.738   E(TOP)=   -1.632
             APW+lo
:E1_0011: E( 1)=   -0.3432
             LOCAL ORBITAL

          ATOMIC SPHERE DEPENDENT PARAMETERS FOR ATOM  Na12      
:e__0012: OVERALL ENERGY PARAMETER IS   -0.3432
          OVERALL BASIS SET ON ATOM IS LAPW
:E0_0012: E( 0)=   -0.3432
             APW+lo
:E0_0012: E( 0)=   -3.7410   E(BOTTOM)=   -3.760   E(TOP)=   -3.722
             LOCAL ORBITAL
:E1_0012: E( 1)=   -1.6850   E(BOTTOM)=   -1.738   E(TOP)=   -1.632
             APW+lo
:E1_0012: E( 1)=   -0.3432
             LOCAL ORBITAL

          ATOMIC SPHERE DEPENDENT PARAMETERS FOR ATOM  Cl13      
:e__0013: OVERALL ENERGY PARAMETER IS   -0.3432
          OVERALL BASIS SET ON ATOM IS LAPW
:E0_0013: E( 0)=   -1.0690   E(BOTTOM)=   -1.520   E(TOP)=   -0.618
             APW+lo
:E0_0013: E( 0)=   -0.3432
             LOCAL ORBITAL
:E1_0013: E( 1)=   -0.3432
             APW+lo

          ATOMIC SPHERE DEPENDENT PARAMETERS FOR ATOM  Cl14      
:e__0014: OVERALL ENERGY PARAMETER IS   -0.3432
          OVERALL BASIS SET ON ATOM IS LAPW
:E0_0014: E( 0)=   -1.0690   E(BOTTOM)=   -1.520   E(TOP)=   -0.618
             APW+lo
:E0_0014: E( 0)=   -0.3432
             LOCAL ORBITAL
:E1_0014: E( 1)=   -0.3432
             APW+lo

          ATOMIC SPHERE DEPENDENT PARAMETERS FOR ATOM  Cl15      
:e__0015: OVERALL ENERGY PARAMETER IS   -0.3432
          OVERALL BASIS SET ON ATOM IS LAPW
:E0_0015: E( 0)=   -1.0690   E(BOTTOM)=   -1.520   E(TOP)=   -0.618
             APW+lo
:E0_0015: E( 0)=   -0.3432
             LOCAL ORBITAL
:E1_0015: E( 1)=   -0.3432
             APW+lo

          ATOMIC SPHERE DEPENDENT PARAMETERS FOR ATOM  Cl16      
:e__0016: OVERALL ENERGY PARAMETER IS   -0.3432
          OVERALL BASIS SET ON ATOM IS LAPW
:E0_0016: E( 0)=   -1.0690   E(BOTTOM)=   -1.520   E(TOP)=   -0.618
             APW+lo
:E0_0016: E( 0)=   -0.3432
             LOCAL ORBITAL
:E1_0016: E( 1)=   -0.3432
             APW+lo

          ATOMIC SPHERE DEPENDENT PARAMETERS FOR ATOM  Cl17      
:e__0017: OVERALL ENERGY PARAMETER IS   -0.3432
          OVERALL BASIS SET ON ATOM IS LAPW
:E0_0017: E( 0)=   -1.0690   E(BOTTOM)=   -1.520   E(TOP)=   -0.618
             APW+lo
:E0_0017: E( 0)=   -0.3432
             LOCAL ORBITAL
:E1_0017: E( 1)=   -0.3432
             APW+lo

          ATOMIC SPHERE DEPENDENT PARAMETERS FOR ATOM  Cl18      
:e__0018: OVERALL ENERGY PARAMETER IS   -0.3432
          OVERALL BASIS SET ON ATOM IS LAPW
:E0_0018: E( 0)=   -1.0690   E(BOTTOM)=   -1.520   E(TOP)=   -0.618
             APW+lo
:E0_0018: E( 0)=   -0.3432
             LOCAL ORBITAL
:E1_0018: E( 1)=   -0.3432
             APW+lo

          ATOMIC SPHERE DEPENDENT PARAMETERS FOR ATOM  Cl19      
:e__0019: OVERALL ENERGY PARAMETER IS   -0.3432
          OVERALL BASIS SET ON ATOM IS LAPW
:E0_0019: E( 0)=   -1.0690   E(BOTTOM)=   -1.520   E(TOP)=   -0.618
             APW+lo
:E0_0019: E( 0)=   -0.3432
             LOCAL ORBITAL
:E1_0019: E( 1)=   -0.3432
             APW+lo

          ATOMIC SPHERE DEPENDENT PARAMETERS FOR ATOM  Cl20      
:e__0020: OVERALL ENERGY PARAMETER IS   -0.3432
          OVERALL BASIS SET ON ATOM IS LAPW
:E0_0020: E( 0)=   -1.0690   E(BOTTOM)=   -1.520   E(TOP)=   -0.618
             APW+lo
:E0_0020: E( 0)=   -0.3432
             LOCAL ORBITAL
:E1_0020: E( 1)=   -0.3432
             APW+lo

          ATOMIC SPHERE DEPENDENT PARAMETERS FOR ATOM  Cl21      
:e__0021: OVERALL ENERGY PARAMETER IS   -0.3432
          OVERALL BASIS SET ON ATOM IS LAPW
:E0_0021: E( 0)=   -1.0690   E(BOTTOM)=   -1.520   E(TOP)=   -0.618
             APW+lo
:E0_0021: E( 0)=   -0.3432
             LOCAL ORBITAL
:E1_0021: E( 1)=   -0.3432
             APW+lo

          ATOMIC SPHERE DEPENDENT PARAMETERS FOR ATOM  Cl22      
:e__0022: OVERALL ENERGY PARAMETER IS   -0.3432
          OVERALL BASIS SET ON ATOM IS LAPW
:E0_0022: E( 0)=   -1.0690   E(BOTTOM)=   -1.520   E(TOP)=   -0.618
             APW+lo
:E0_0022: E( 0)=   -0.3432
             LOCAL ORBITAL
:E1_0022: E( 1)=   -0.3432
             APW+lo

          ATOMIC SPHERE DEPENDENT PARAMETERS FOR ATOM  Cl23      
:e__0023: OVERALL ENERGY PARAMETER IS   -0.3432
          OVERALL BASIS SET ON ATOM IS LAPW
:E0_0023: E( 0)=   -1.0690   E(BOTTOM)=   -1.520   E(TOP)=   -0.618
             APW+lo
:E0_0023: E( 0)=   -0.3432
             LOCAL ORBITAL
:E1_0023: E( 1)=   -0.3432
             APW+lo

          ATOMIC SPHERE DEPENDENT PARAMETERS FOR ATOM  Cl24      
:e__0024: OVERALL ENERGY PARAMETER IS   -0.3432
          OVERALL BASIS SET ON ATOM IS LAPW
:E0_0024: E( 0)=   -1.0690   E(BOTTOM)=   -1.520   E(TOP)=   -0.618
             APW+lo
:E0_0024: E( 0)=   -0.3432
             LOCAL ORBITAL
:E1_0024: E( 1)=   -0.3432
             APW+lo

       K=   0.25000   0.25000   0.25000            1
:RKM  : MATRIX SIZE 4099LOs: 416  RKM= 6.99  WEIGHT= 8.00  PGR:    
       EIGENVALUES ARE:
:EIG00001:      -3.7377030   -3.7372284   -3.7372200   -3.7372119   -3.7372090
:EIG00006:      -3.7372051   -3.7372012   -3.7371644   -3.7371537   -3.7371444
:EIG00011:      -3.7371413   -3.7371410   -3.7371372   -3.7371367   -3.7371350
:EIG00016:      -3.7371337   -3.7371314   -3.7371305   -3.7371284   -3.7371282
:EIG00021:      -3.7371268   -3.7371268   -3.7371198   -3.7371191   -3.7371060
:EIG00026:      -3.7370380   -3.7370352   -3.7370335   -3.7370331   -3.7370201
:EIG00031:      -3.7370169   -3.7364955   -1.6744188   -1.6744065   -1.6743801
:EIG00036:      -1.6742814   -1.6741145   -1.6741106   -1.6740835   -1.6740219
:EIG00041:      -1.6739995   -1.6739992   -1.6739960   -1.6739798   -1.6739524
:EIG00046:      -1.6739293   -1.6738925   -1.6738631   -1.6738429   -1.6738351
 
:EIG00051:      -1.6737983   -1.6737913   -1.6737887   -1.6737605   -1.6737563
:EIG00056:      -1.6737543   -1.6737406   -1.6737356   -1.6736972   -1.6736882
:EIG00061:      -1.6734576   -1.6734531   -1.6734164   -1.6733828   -1.6733806
:EIG00066:      -1.6733781   -1.6733738   -1.6733704   -1.6733561   -1.6733265
:EIG00071:      -1.6732967   -1.6732929   -1.6732647   -1.6732314   -1.6732244
:EIG00076:      -1.6731803   -1.6731724   -1.6731321   -1.6731194   -1.6731187
:EIG00081:      -1.6731110   -1.6731083   -1.6730936   -1.6730934   -1.6730722
:EIG00086:      -1.6730627   -1.6730537   -1.6730505   -1.6730267   -1.6730070
:EIG00091:      -1.6729944   -1.6729855   -1.6729793   -1.6729646   -1.6729486
:EIG00096:      -1.6729381   -1.6729224   -1.6729132   -1.6729035   -1.6729005
 
:EIG00101:      -1.6728851   -1.6728616   -1.6728593   -1.6728508   -1.6728425
:EIG00106:      -1.6728375   -1.6728338   -1.6728233   -1.6728157   -1.6728106
:EIG00111:      -1.6728014   -1.6727752   -1.6727634   -1.6727631   -1.6727609
:EIG00116:      -1.6727442   -1.6727222   -1.6727162   -1.6727099   -1.6727005
:EIG00121:      -1.6726898   -1.6726677   -1.6726381   -1.6726243   -1.6725906
:EIG00126:      -1.6724028   -1.6723757   -1.6723717   -1.0635792   -1.0565192
:EIG00131:      -1.0565029   -1.0564853   -1.0511414   -1.0511207   -1.0511017
:EIG00136:      -1.0475641   -1.0472395   -1.0472209   -1.0471966   -1.0445136
:EIG00141:      -1.0444671   -1.0444537   -1.0444536   -1.0444395   -1.0444042
:EIG00146:      -1.0436231   -1.0436162   -1.0435997   -1.0416593   -1.0416390
 
:EIG00151:      -1.0416093   -1.0412400   -1.0412335   -1.0412238   -1.0404903
:EIG00156:      -1.0404492   -1.0404445   -1.0404435   -1.0404397   -1.0403795
:EIG00161:      -0.2677542   -0.2677500   -0.2677399   -0.2600565   -0.2512558
:EIG00166:      -0.2512518   -0.2512468   -0.2491354   -0.2491315   -0.2491272
:EIG00171:      -0.2484466   -0.2484448   -0.2484332   -0.2484292   -0.2484205
:EIG00176:      -0.2484158   -0.2405735   -0.2405654   -0.2405565   -0.2405533
:EIG00181:      -0.2405447   -0.2405358   -0.2378868   -0.2378776   -0.2378683
:EIG00186:      -0.2334447   -0.2334427   -0.2334401   -0.2108003   -0.2107940
:EIG00191:      -0.2107630   -0.2107621   -0.2107298   -0.2107274   -0.2067323
:EIG00196:      -0.2067056   -0.2066795   -0.2053028   -0.2052864   -0.2052700
 
:EIG00201:      -0.1914612   -0.1914388   -0.1914198   -0.1884369   -0.1884028
:EIG00206:      -0.1883806   -0.1883796   -0.1883561   -0.1883212   -0.1813359
:EIG00211:      -0.1813205   -0.1813035   -0.1813033   -0.1812857   -0.1812727
:EIG00216:      -0.1791605   -0.1791594   -0.1791565   -0.1749244   -0.1749105
:EIG00221:      -0.1748971   -0.1717552   -0.1717361   -0.1717198   -0.1693546
:EIG00226:      -0.1693390   -0.1693236   -0.1678152   -0.1678122   -0.1678107
:EIG00231:      -0.1667490   -0.1667319   -0.1667178   -0.1664247   -0.1654515
:EIG00236:      -0.1654445   -0.1654110   -0.1654108   -0.1653724   -0.1653655
:EIG00241:      -0.1623685   -0.1623684   -0.1623667   -0.1561337   -0.1561328
:EIG00246:      -0.1545348   -0.1545188   -0.1545038   -0.1538397   -0.1537976
 
:EIG00251:      -0.1537554   -0.1516768   -0.1516613   -0.1516456   -0.1432247
:EIG00256:      -0.1432244    0.2633348    0.3358191    0.3358947    0.3359696
:EIG00261:       0.3814098    0.3818707    0.3819374    0.3820164    0.4178974
:EIG00266:       0.4179056    0.4179079    0.4186337    0.4187207    0.4188051
:EIG00271:       0.4272685    0.4272805    0.4273101    0.4525479    0.4525782
:EIG00276:       0.4526428    0.4526453    0.4527151    0.4527352    0.4770153
:EIG00281:       0.4770468    0.4770929    0.4775354    0.4775953    0.4776450
:EIG00286:       0.4835507    0.4836521    0.4836651    0.4836757    0.4836890
:EIG00291:       0.4837921    0.5115272    0.5115523    0.5115819    0.5288444
:EIG00296:       0.5288530    0.5289549    0.5289595    0.5290588    0.5290681
 
:EIG00301:       0.5469912    0.5470457    0.5470992    0.5566520    0.5566954
:EIG00306:       0.5567704    0.5567780    0.5568499    0.5568949    0.5727103
:EIG00311:       0.5727558    0.5728135    0.5753466    0.5753790    0.5754013
:EIG00316:       0.5848094    0.5849299    0.5849452    0.5849470    0.5849677
:EIG00321:       0.5850746    0.5938240    0.5938366    0.5938707    0.5957496
:EIG00326:       0.5957640    0.5958531    0.5958566    0.5959492    0.5959615
:EIG00331:       0.6022366    0.6022765    0.6023081    0.6045090    0.6123193
:EIG00336:       0.6123297    0.6123435    0.6330702    0.6330942    0.6331137
:EIG00341:       0.6333779    0.6507974    0.6508412    0.6508450    0.6512271
:EIG00346:       0.6512307    0.6512586    0.6694193    0.6694224    0.6793230
 
:EIG00351:       0.6793394    0.6793615    0.6829015    0.6829050    0.6829218
:EIG00356:       0.6864343    0.6864383    0.7026624    0.7026804    0.7026940
:EIG00361:       0.7174340    0.7174362    0.7174369    0.7268871    0.7269610
:EIG00366:       0.7269833    0.7269917    0.7270093    0.7270861    0.7292456
:EIG00371:       0.7292669    0.7292821    0.7378246    0.7378692    0.7379017
:EIG00376:       0.7379028    0.7379600    0.7380055    0.7613636    0.7613669
:EIG00381:       0.7613728    0.7764044    0.7764407    0.7764694    0.7941684
:EIG00386:       0.7942111    0.7942484    0.8080997    0.8081026    0.8325322
:EIG00391:       0.8325974    0.8326642    0.8460868    0.8460945    0.8461091
:EIG00396:       0.8606547    0.8607698    0.8608084    0.8608135    0.8608553
 
:EIG00401:       0.8609726    0.8626351    0.8626627    0.8626839    0.8924255
:EIG00406:       0.8924877    0.8925360    0.8929174    0.8929232    0.8929623
:EIG00411:       0.9048969    0.9049073    0.9049688    0.9049689    0.9050366
:EIG00416:       0.9050368    0.9231239    0.9231250    0.9271262    0.9271991
:EIG00421:       0.9273102    0.9274258    0.9274322    0.9274441    0.9395862
:EIG00426:       0.9396421    0.9397126    0.9530493    0.9530663    0.9530848
:EIG00431:       0.9582300    1.0124888    1.0199034    1.0199109    1.0199397
:EIG00436:       1.0199509    1.0199679    1.0199904    1.0319372    1.0319928
:EIG00441:       1.0320522    1.0320694    1.0321351    1.0322137    1.0352514
:EIG00446:       1.0352927    1.0353374    1.0364343    1.0364586    1.0364885
 
:EIG00451:       1.0373396    1.0373562    1.0373895    1.0556027    1.0556050
:EIG00456:       1.0556086    1.0612140    1.0612335    1.0612952    1.0612993
:EIG00461:       1.0613623    1.0613786    1.0701234    1.0701240    1.0701400
:EIG00466:       1.0701422    1.0701579    1.0701617    1.0804560    1.0804796
:EIG00471:       1.0805011    1.0930694    1.0931054    1.0931385    1.0951326
:EIG00476:       1.0998907    1.0999094    1.0999313    1.1062444    1.1063085
:EIG00481:       1.1063538    1.1287007    1.1287517    1.1288009    1.1318482
:EIG00486:       1.1319034    1.1319054    1.1494355    1.1494689    1.1495005
:EIG00491:       1.1495067    1.1495398    1.1495804    1.1648021    1.1648042
:EIG00496:       1.1768424    1.1769186    1.1769811    1.1815397    1.1816190
 
:EIG00501:       1.1816887    1.1816896    1.1817606    1.1818463    1.1999980
:EIG00506:       1.2000482    1.2000984    1.2051177    1.2051592    1.2052026
:EIG00511:       1.2150298    1.2161289    1.2161379    1.2161419    1.2182257
:EIG00516:       1.2182442    1.2182683    1.2185726    1.2186166    1.2186469
:EIG00521:       1.2397505    1.2397789    1.2398137    1.2453907    1.2454480
:EIG00526:       1.2455006    1.2483874    1.2484544    1.2485275    1.2614043
:EIG00531:       1.2615454    1.2615535    1.2615569    1.2615584    1.2617049
:EIG00536:       1.2670728    1.2671024    1.2671655    1.2671657    1.2672318
:EIG00541:       1.2672631    1.2694481    1.2694515    1.2737242    1.2737578
:EIG00546:       1.2737911    1.2764903    1.2765196    1.2765247    1.2867129
 
:EIG00551:       1.2867845    1.2868599    1.3000047    1.3000628    1.3001270
:EIG00556:       1.3375667    1.3376689    1.3376846    1.3376857    1.3377054
:EIG00561:       1.3378200    1.3435216    1.3435282    1.3435742    1.3435801
:EIG00566:       1.3436265    1.3436366    1.3514122    1.3514178    1.3514191
:EIG00571:       1.3559709    1.3559951    1.3560189    1.3747091    1.3748209
:EIG00576:       1.3749352    1.4031113    1.4031384    1.4031921    1.4032063
:EIG00581:       1.4032395    1.4032439    1.4034605    1.4034760    1.4035154
:EIG00586:       1.4096497    1.4097073    1.4097637    1.4156873    1.4157483
:EIG00591:       1.4158112    1.4225215    1.4225422    1.4225948    1.4388859
:EIG00596:       1.4388944    1.4388961    1.4544689    1.4545216    1.4545421
 
:EIG00601:       1.4580361    1.4580398    1.4580445    1.4636156    1.4636356
:EIG00606:       1.4637250    1.4637305    1.4637890    1.4638341    1.4655611
:EIG00611:       1.4656564    1.4657442    1.4727399    1.4727429    1.4757227
:EIG00616:       1.4962960    1.4964051    1.4965079    1.5147058    1.5147822
:EIG00621:       1.5148495    1.5179095    1.5179412    1.5179517    1.5184257
:EIG00626:       1.5184548    1.5184702    1.5365310    1.5365470    1.5366329
:EIG00631:       1.5366466    1.5367054    1.5367389    1.5596206    1.5596831
:EIG00636:       1.5597481    1.5597507    1.5598084    1.5598791    1.5662469
:EIG00641:       1.5662547    1.5662913    1.5985892    1.6061976    1.6062380
:EIG00646:       1.6062893    1.6197764    1.6198376    1.6198773    1.6198797
 
:EIG00651:       1.6199274    1.6199824    1.6319343    1.6319741    1.6319849
:EIG00656:       1.6343482    1.6344174    1.6344769    1.6442352    1.6443377
:EIG00661:       1.6443755    1.6443868    1.6444218    1.6445293    1.6484353
:EIG00666:       1.6484445    1.6484647    1.6501858    1.6502107    1.6502513
:EIG00671:       1.6703223    1.6703511    1.6703870    1.6725871    1.6726053
:EIG00676:       1.6726947    1.6727060    1.6728030    1.6728129    1.6894669
:EIG00681:       1.6998900    1.6998941    1.7092823    1.7092963    1.7093812
:EIG00686:       1.7093829    1.7094440    1.7094762    1.7108774    1.7109502
:EIG00691:       1.7110148    1.7142150    1.7142288    1.7142624    1.7206531
:EIG00696:       1.7206713    1.7206860    1.7398462    1.7399247    1.7400062
 
:EIG00701:       1.7659493    1.7660131    1.7660795    1.7742889    1.7742910
:EIG00706:       1.7743062    1.8064406    1.8064570    1.8065054    1.8065134
:EIG00711:       1.8065525    1.8065713    1.8101319    1.8101405    1.8101453
:EIG00716:       1.8154397    1.8154954    1.8155451    1.8161357    1.8161589
:EIG00721:       1.8161609    1.8229677    1.8230047    1.8230361    1.8246458
:EIG00726:       1.8246517    1.8246682    1.8287648    1.8287661    1.8288024
:EIG00731:       1.8288062    1.8288347    1.8288515    1.8385692    1.8385710
:EIG00736:       1.8422783    1.8422887    1.8422956    1.8555403    1.8556018
:EIG00741:       1.8556269    1.8556383    1.8556636    1.8557200    1.8671063
:EIG00746:       1.8671518    1.8671765    1.8895440    1.8895613    1.8895862
 
:EIG00751:       1.8952223    1.8952474    1.8952865    1.8952865    1.8953313
:EIG00756:       1.8953514    1.9121498    1.9121521    1.9121541    1.9219852
:EIG00761:       1.9219905    1.9219941    1.9230681    1.9230706    1.9230736
:EIG00766:       1.9244063    1.9244204    1.9244379    1.9323062    1.9323867
:EIG00771:       1.9324837    1.9341816    1.9341819    1.9355722    1.9355750
:EIG00776:       1.9356156    1.9356182    1.9356652    1.9356739    1.9548831
:EIG00781:       1.9549363    1.9549555    1.9549583    1.9549690    1.9550286
:EIG00786:       1.9651335    1.9651509    1.9652306    1.9652388    1.9653038
:EIG00791:       1.9653385    1.9718036    1.9903340    1.9903765    1.9904173
:EIG00796:       1.9959181    1.9959767    1.9960169    1.9974768    1.9975532
 
:EIG00801:       1.9975789    2.0318410    2.0319400    2.0320365    2.0511390
:EIG00806:       2.0660134    2.0660479    2.0660936    2.0732898    2.0733096
:EIG00811:       2.0733657    2.0733732    2.0734187    2.0734681    2.0735480
:EIG00816:       2.0735705    2.0735813    2.0778270    2.0778524    2.0778725
:EIG00821:       2.0798081    2.0798206    2.0798489    2.0812228    2.0812580
:EIG00826:       2.0812894    2.0910450    2.0910936    2.0911349    2.0911395
:EIG00831:       2.0911616    2.0912347    2.1074507    2.1074608    2.1074751
:EIG00836:       2.1124646    2.1125027    2.1125390    2.1144390    2.1203251
:EIG00841:       2.1203855    2.1204296    2.1204363    2.1204763    2.1205053
:EIG00846:       2.1219165    2.1219835    2.1220890    2.1343824    2.1343867
 
:EIG00851:       2.1599384    2.1600007    2.1600168    2.1600249    2.1600418
:EIG00856:       2.1601042    2.1623559    2.1623845    2.1624387    2.1725917
:EIG00861:       2.1726927    2.1727119    2.1727955    2.1728752    2.1817300
:EIG00866:       2.1817642    2.1817982    2.1919424    2.1919684    2.1920277
:EIG00871:       2.1920318    2.1920943    2.1921133    2.2029117    2.2030033
:EIG00876:       2.2030909    2.2053267    2.2054349    2.2055448    2.2202827
:EIG00881:       2.2203402    2.2203930    2.2334577    2.2335087    2.2335588
:EIG00886:       2.2408144    2.2408668    2.2408966    2.2408993    2.2409267
:EIG00891:       2.2409806    2.2482283    2.2482612    2.2483011    2.2601783
:EIG00896:       2.2602347    2.2602896    2.2679451    2.2679464    2.2679559
 
:EIG00901:       2.2729777    2.2730202    2.2732128    2.2732705    2.2733525
:EIG00906:       2.2825494    2.2826100    2.2826686    2.2910191    2.2965867
:EIG00911:       2.2966072    2.2966488    2.2966502    2.2966894    2.2967173
:EIG00916:       2.3000565    2.3000867    2.3001791    2.3001824    2.3002753
:EIG00921:       2.3003047    2.3094470    2.3094971    2.3095005    2.3274783
:EIG00926:       2.3274834    2.3274943    2.3439584    2.3440034    2.3440483
:EIG00931:       2.3706640    2.3707968    2.3709197    2.3756462    2.3756798
:EIG00936:       2.3757196    2.3775786    2.3787230    2.3787737    2.3788233
:EIG00941:       2.3847536    2.3847953    2.3848331    2.3871047    2.3871154
:EIG00946:       2.3871254    2.3972416    2.3972450    2.3972528    2.4000514
 
:EIG00951:       2.4001955    2.4002969    2.4052382    2.4052661    2.4052980
:EIG00956:       2.4053015    2.4053395    2.4053689    2.4150140    2.4150141
:EIG00961:       2.4150269    2.4219219    2.4219280    2.4237787    2.4237931
:EIG00966:       2.4238112    2.4312941    2.4313030    2.4313301    2.4313400
:EIG00971:       2.4313748    2.4313767    2.4376255    2.4376417    2.4376779
:EIG00976:       2.4376833    2.4377186    2.4377297    2.4383411    2.4383428
:EIG00981:       2.4383774    2.4694054    2.4694569    2.4694993    2.4695007
:EIG00986:       2.4695457    2.4695918    2.4829386    2.4829498    2.4829654
:EIG00991:       2.4854833    2.4855131    2.4855300    2.4855382    2.4855568
:EIG00996:       2.4855839    2.4888337    2.4888538    2.4888735    2.4888757
 
:EIG01001:       2.4889005    2.4889099    2.4907450    2.4958714    2.4958938
:EIG01006:       2.4959245    2.4993821    2.4994186    2.4994373
       ********************************************************

:KPT   :      NUMBER OF K-POINTS:     1
:GMA  : POTENTIAL AND CHARGE CUT-OFF  12.00 Ry**.5
       Insulator, EF-inconsistency corrected
:GAP  :    0.4066 Ry =     5.529 eV   (provided you have a proper k-mesh)
         Bandranges (emin - emax) and occupancy:
:BAN00246: 246   -0.154535   -0.154535  2.00000000
:BAN00247: 247   -0.154519   -0.154519  2.00000000
:BAN00248: 248   -0.154504   -0.154504  2.00000000
:BAN00249: 249   -0.153840   -0.153840  2.00000000
:BAN00250: 250   -0.153798   -0.153798  2.00000000
:BAN00251: 251   -0.153755   -0.153755  2.00000000
:BAN00252: 252   -0.151677   -0.151677  2.00000000
:BAN00253: 253   -0.151661   -0.151661  2.00000000
:BAN00254: 254   -0.151646   -0.151646  2.00000000
:BAN00255: 255   -0.143225   -0.143225  2.00000000
:BAN00256: 256   -0.143224   -0.143224  2.00000000
:BAN00257: 257    0.263335    0.263335  0.00000000
:BAN00258: 258    0.335819    0.335819  0.00000000
:BAN00259: 259    0.335895    0.335895  0.00000000
:BAN00260: 260    0.335970    0.335970  0.00000000
:BAN00261: 261    0.381410    0.381410  0.00000000
        Energy to separate low and high energystates:   -0.31775


:NOE  : NUMBER OF ELECTRONS          = 512.000

:FER  : F E R M I - ENERGY(TETRAH.M.)=  -0.14322




:POS001: ATOM   -1 POSITION = 0.00000 0.00000 0.00000  MULTIPLICITY = 4  ZZ= 11.000  Na1       

       LMMAX 28
       LM=   0 0  1 1 -1 1  2 0  2 2 -2 2  3 1 -3 1  3 3 -3 3  4 0  4 2 -4 2  4 4 -4 4  5 1 -5 1
         5 3 -5 3  5 5 -5 5  6 0  6 2 -6 2  6 4 -6 4  6 6 -6 6

:CHA001: TOTAL VALENCE CHARGE INSIDE SPHERE   1 =     8.164083
:PCS001: PARTIAL CHARGES SPHERE =  1 S,P,D,F,PX,PY,PZ,D-Z2,D-X2Y2,D-XY,D-XZ,D-YZ 
:QTL001: 2.0683 6.0468 0.0381 0.0086 2.0156 2.0156 2.0156 0.0057 0.0121 0.0025 0.0025 0.0153
        Q-s-low E-s-low   Q-p-low E-p-low   Q-d-low E-d-low   Q-f-low E-f-low
:EPL001:  2.0019 -3.7318    5.9709 -1.6724    0.0030 -1.0434    0.0009 -1.0483
        Q-s-hi  E-s-hi    Q-p-hi  E-p-hi    Q-d-hi  E-d-hi    Q-f-hi  E-f-hi 
:EPH001:  0.0664 -0.2369    0.0759 -0.2038    0.0350 -0.1848    0.0077 -0.1811

                      QXX         QXY         QYY         QZZ       UP TO R

:VZZ001:            -0.00035     0.00004     0.00012     0.00023       2.500




:POS002: ATOM   -2 POSITION = 0.50000 0.00000 0.00000  MULTIPLICITY = 4  ZZ= 11.000  Na2       

       LMMAX 28
       LM=   0 0  1 1 -1 1  2 0  2 2 -2 2  3 1 -3 1  3 3 -3 3  4 0  4 2 -4 2  4 4 -4 4  5 1 -5 1
         5 3 -5 3  5 5 -5 5  6 0  6 2 -6 2  6 4 -6 4  6 6 -6 6

:CHA002: TOTAL VALENCE CHARGE INSIDE SPHERE   2 =     8.164073
:PCS002: PARTIAL CHARGES SPHERE =  2 S,P,D,F,PX,PY,PZ,D-Z2,D-X2Y2,D-XY,D-XZ,D-YZ 
:QTL002: 2.0683 6.0467 0.0381 0.0086 2.0156 2.0156 2.0156 0.0057 0.0121 0.0025 0.0025 0.0153
        Q-s-low E-s-low   Q-p-low E-p-low   Q-d-low E-d-low   Q-f-low E-f-low
:EPL002:  2.0019 -3.7316    5.9709 -1.6723    0.0030 -1.0433    0.0009 -1.0481
        Q-s-hi  E-s-hi    Q-p-hi  E-p-hi    Q-d-hi  E-d-hi    Q-f-hi  E-f-hi 
:EPH002:  0.0664 -0.2367    0.0759 -0.2037    0.0350 -0.1847    0.0077 -0.1810

                      QXX         QXY         QYY         QZZ       UP TO R

:VZZ002:             0.00072     0.00004    -0.00045    -0.00027       2.500




:POS003: ATOM   -3 POSITION = 0.00000 0.25000 0.25000  MULTIPLICITY = 1  ZZ= 11.000  Na3       

       LMMAX 10
       LM=   0 0  1 0  2 0  3 0  4 0  4 4  5 0  5 4  6 0  6 4

:CHA003: TOTAL VALENCE CHARGE INSIDE SPHERE   3 =     8.163249
:PCS003: PARTIAL CHARGES SPHERE =  3 S,P,D,F,PZ,PXY,,D-Z2,D-XY,D-X2Y2,D-XZ,YZ 
:QTL003: 2.0681 6.0464 0.0379 0.0086 2.0152 4.0312 0.0000 0.0151 0.0025 0.0153 0.0049 0.0000
        Q-s-low E-s-low   Q-p-low E-p-low   Q-d-low E-d-low   Q-f-low E-f-low
:EPL003:  2.0019 -3.7323    5.9709 -1.6729    0.0030 -1.0435    0.0009 -1.0483
        Q-s-hi  E-s-hi    Q-p-hi  E-p-hi    Q-d-hi  E-d-hi    Q-f-hi  E-f-hi 
:EPH003:  0.0663 -0.2368    0.0756 -0.2039    0.0348 -0.1849    0.0076 -0.1812
:VZZ003: EFG INSIDE SPHERE   3 =     0.016133      UP TO R =   2.50000




:POS004: ATOM   -4 POSITION = 0.50000 0.25000 0.25000  MULTIPLICITY = 1  ZZ= 11.000  Na4       

       LMMAX 10
       LM=   0 0  1 0  2 0  3 0  4 0  4 4  5 0  5 4  6 0  6 4

:CHA004: TOTAL VALENCE CHARGE INSIDE SPHERE   4 =     8.164962
:PCS004: PARTIAL CHARGES SPHERE =  4 S,P,D,F,PZ,PXY,,D-Z2,D-XY,D-X2Y2,D-XZ,YZ 
:QTL004: 2.0686 6.0471 0.0383 0.0087 2.0159 4.0312 0.0000 0.0155 0.0025 0.0153 0.0050 0.0000
        Q-s-low E-s-low   Q-p-low E-p-low   Q-d-low E-d-low   Q-f-low E-f-low
:EPL004:  2.0019 -3.7311    5.9709 -1.6717    0.0031 -1.0432    0.0009 -1.0481
        Q-s-hi  E-s-hi    Q-p-hi  E-p-hi    Q-d-hi  E-d-hi    Q-f-hi  E-f-hi 
:EPH004:  0.0667 -0.2368    0.0762 -0.2036    0.0352 -0.1846    0.0077 -0.1809
:VZZ004: EFG INSIDE SPHERE   4 =    -0.016108      UP TO R =   2.50000




:POS005: ATOM   -5 POSITION = 0.00000 0.75000 0.25000  MULTIPLICITY = 2  ZZ= 11.000  Na5       

       LMMAX 16
       LM=   0 0  1 0  2 0  2 2  3 0  3 2  4 0  4 2  4 4  5 0  5 2  5 4  6 0  6 2  6 4  6 6

:CHA005: TOTAL VALENCE CHARGE INSIDE SPHERE   5 =     8.164083
:PCS005: PARTIAL CHARGES SPHERE =  5 S,P,D,F,PX,PY,PZ,D-Z2,D-X2Y2,D-XY,D-XZ,D-YZ 
:QTL005: 2.0683 6.0468 0.0381 0.0086 2.0156 2.0156 2.0156 0.0153 0.0153 0.0025 0.0025 0.0025
        Q-s-low E-s-low   Q-p-low E-p-low   Q-d-low E-d-low   Q-f-low E-f-low
:EPL005:  2.0019 -3.7318    5.9709 -1.6724    0.0030 -1.0434    0.0009 -1.0483
        Q-s-hi  E-s-hi    Q-p-hi  E-p-hi    Q-d-hi  E-d-hi    Q-f-hi  E-f-hi 
:EPH005:  0.0665 -0.2369    0.0759 -0.2038    0.0350 -0.1848    0.0077 -0.1812

                      VXX         VYY         VZZ       UP TO R

:VZZ005:            -0.00046     0.00093    -0.00047       2.500




:POS006: ATOM   -6 POSITION = 0.50000 0.75000 0.25000  MULTIPLICITY = 2  ZZ= 11.000  Na6       

       LMMAX 16
       LM=   0 0  1 0  2 0  2 2  3 0  3 2  4 0  4 2  4 4  5 0  5 2  5 4  6 0  6 2  6 4  6 6

:CHA006: TOTAL VALENCE CHARGE INSIDE SPHERE   6 =     8.164096
:PCS006: PARTIAL CHARGES SPHERE =  6 S,P,D,F,PX,PY,PZ,D-Z2,D-X2Y2,D-XY,D-XZ,D-YZ 
:QTL006: 2.0683 6.0468 0.0381 0.0086 2.0156 2.0156 2.0156 0.0153 0.0153 0.0025 0.0025 0.0025
        Q-s-low E-s-low   Q-p-low E-p-low   Q-d-low E-d-low   Q-f-low E-f-low
:EPL006:  2.0019 -3.7316    5.9709 -1.6722    0.0030 -1.0433    0.0009 -1.0481
        Q-s-hi  E-s-hi    Q-p-hi  E-p-hi    Q-d-hi  E-d-hi    Q-f-hi  E-f-hi 
:EPH006:  0.0665 -0.2367    0.0759 -0.2037    0.0350 -0.1846    0.0077 -0.1810

                      VXX         VYY         VZZ       UP TO R

:VZZ006:             0.00026    -0.00113     0.00086       2.500




:POS007: ATOM   -7 POSITION = 0.00000 0.75000 0.75000  MULTIPLICITY = 1  ZZ= 11.000  Na7       

       LMMAX 10
       LM=   0 0  1 0  2 0  3 0  4 0  4 4  5 0  5 4  6 0  6 4

:CHA007: TOTAL VALENCE CHARGE INSIDE SPHERE   7 =     8.164089
:PCS007: PARTIAL CHARGES SPHERE =  7 S,P,D,F,PZ,PXY,,D-Z2,D-XY,D-X2Y2,D-XZ,YZ 
:QTL007: 2.0683 6.0468 0.0381 0.0086 2.0156 4.0312 0.0000 0.0153 0.0025 0.0153 0.0050 0.0000
        Q-s-low E-s-low   Q-p-low E-p-low   Q-d-low E-d-low   Q-f-low E-f-low
:EPL007:  2.0019 -3.7318    5.9709 -1.6724    0.0030 -1.0434    0.0009 -1.0482
        Q-s-hi  E-s-hi    Q-p-hi  E-p-hi    Q-d-hi  E-d-hi    Q-f-hi  E-f-hi 
:EPH007:  0.0665 -0.2368    0.0759 -0.2038    0.0350 -0.1848    0.0077 -0.1811
:VZZ007: EFG INSIDE SPHERE   7 =    -0.000010      UP TO R =   2.50000




:POS008: ATOM   -8 POSITION = 0.50000 0.75000 0.75000  MULTIPLICITY = 1  ZZ= 11.000  Na8       

       LMMAX 10
       LM=   0 0  1 0  2 0  3 0  4 0  4 4  5 0  5 4  6 0  6 4

:CHA008: TOTAL VALENCE CHARGE INSIDE SPHERE   8 =     8.164092
:PCS008: PARTIAL CHARGES SPHERE =  8 S,P,D,F,PZ,PXY,,D-Z2,D-XY,D-X2Y2,D-XZ,YZ 
:QTL008: 2.0683 6.0468 0.0381 0.0086 2.0156 4.0312 0.0000 0.0153 0.0025 0.0153 0.0050 0.0000
        Q-s-low E-s-low   Q-p-low E-p-low   Q-d-low E-d-low   Q-f-low E-f-low
:EPL008:  2.0019 -3.7317    5.9709 -1.6723    0.0030 -1.0433    0.0009 -1.0482
        Q-s-hi  E-s-hi    Q-p-hi  E-p-hi    Q-d-hi  E-d-hi    Q-f-hi  E-f-hi 
:EPH008:  0.0665 -0.2368    0.0759 -0.2037    0.0350 -0.1847    0.0077 -0.1810
:VZZ008: EFG INSIDE SPHERE   8 =     0.000417      UP TO R =   2.50000




:POS009: ATOM   -9 POSITION = 0.75000 0.00000 0.75000  MULTIPLICITY = 4  ZZ= 11.000  Na9       

       LMMAX 28
       LM=   0 0  1 1 -1 1  2 0  2 2 -2 2  3 1 -3 1  3 3 -3 3  4 0  4 2 -4 2  4 4 -4 4  5 1 -5 1
         5 3 -5 3  5 5 -5 5  6 0  6 2 -6 2  6 4 -6 4  6 6 -6 6

:CHA009: TOTAL VALENCE CHARGE INSIDE SPHERE   9 =     8.164089
:PCS009: PARTIAL CHARGES SPHERE =  9 S,P,D,F,PX,PY,PZ,D-Z2,D-X2Y2,D-XY,D-XZ,D-YZ 
:QTL009: 2.0683 6.0468 0.0381 0.0086 2.0156 2.0156 2.0156 0.0153 0.0153 0.0025 0.0025 0.0025
        Q-s-low E-s-low   Q-p-low E-p-low   Q-d-low E-d-low   Q-f-low E-f-low
:EPL009:  2.0019 -3.7317    5.9709 -1.6724    0.0030 -1.0434    0.0009 -1.0482
        Q-s-hi  E-s-hi    Q-p-hi  E-p-hi    Q-d-hi  E-d-hi    Q-f-hi  E-f-hi 
:EPH009:  0.0665 -0.2368    0.0759 -0.2038    0.0350 -0.1847    0.0077 -0.1811

                      QXX         QXY         QYY         QZZ       UP TO R

:VZZ009:            -0.00011     0.00001    -0.00009     0.00019       2.500




:POS010: ATOM  -10 POSITION = 0.25000 0.00000 0.25000  MULTIPLICITY = 4  ZZ= 11.000  Na10      

       LMMAX 28
       LM=   0 0  1 1 -1 1  2 0  2 2 -2 2  3 1 -3 1  3 3 -3 3  4 0  4 2 -4 2  4 4 -4 4  5 1 -5 1
         5 3 -5 3  5 5 -5 5  6 0  6 2 -6 2  6 4 -6 4  6 6 -6 6

:CHA010: TOTAL VALENCE CHARGE INSIDE SPHERE  10 =     8.164087
:PCS010: PARTIAL CHARGES SPHERE = 10 S,P,D,F,PX,PY,PZ,D-Z2,D-X2Y2,D-XY,D-XZ,D-YZ 
:QTL010: 2.0683 6.0468 0.0381 0.0086 2.0156 2.0156 2.0156 0.0153 0.0153 0.0025 0.0025 0.0025
        Q-s-low E-s-low   Q-p-low E-p-low   Q-d-low E-d-low   Q-f-low E-f-low
:EPL010:  2.0019 -3.7317    5.9709 -1.6724    0.0030 -1.0434    0.0009 -1.0482
        Q-s-hi  E-s-hi    Q-p-hi  E-p-hi    Q-d-hi  E-d-hi    Q-f-hi  E-f-hi 
:EPH010:  0.0665 -0.2368    0.0759 -0.2038    0.0350 -0.1847    0.0077 -0.1811

                      QXX         QXY         QYY         QZZ       UP TO R

:VZZ010:            -0.00013    -0.00314    -0.00006     0.00019       2.500




:POS011: ATOM  -11 POSITION = 0.75000 0.00000 0.25000  MULTIPLICITY = 4  ZZ= 11.000  Na11      

       LMMAX 28
       LM=   0 0  1 1 -1 1  2 0  2 2 -2 2  3 1 -3 1  3 3 -3 3  4 0  4 2 -4 2  4 4 -4 4  5 1 -5 1
         5 3 -5 3  5 5 -5 5  6 0  6 2 -6 2  6 4 -6 4  6 6 -6 6

:CHA011: TOTAL VALENCE CHARGE INSIDE SPHERE  11 =     8.164088
:PCS011: PARTIAL CHARGES SPHERE = 11 S,P,D,F,PX,PY,PZ,D-Z2,D-X2Y2,D-XY,D-XZ,D-YZ 
:QTL011: 2.0683 6.0468 0.0381 0.0086 2.0156 2.0156 2.0156 0.0153 0.0153 0.0025 0.0025 0.0025
        Q-s-low E-s-low   Q-p-low E-p-low   Q-d-low E-d-low   Q-f-low E-f-low
:EPL011:  2.0019 -3.7317    5.9709 -1.6724    0.0030 -1.0434    0.0009 -1.0482
        Q-s-hi  E-s-hi    Q-p-hi  E-p-hi    Q-d-hi  E-d-hi    Q-f-hi  E-f-hi 
:EPH011:  0.0665 -0.2368    0.0759 -0.2038    0.0350 -0.1847    0.0077 -0.1811

                      QXX         QXY         QYY         QZZ       UP TO R

:VZZ011:            -0.00011    -0.00008    -0.00010     0.00020       2.500




:POS012: ATOM  -12 POSITION = 0.25000 0.00000 0.75000  MULTIPLICITY = 4  ZZ= 11.000  Na12      

       LMMAX 28
       LM=   0 0  1 1 -1 1  2 0  2 2 -2 2  3 1 -3 1  3 3 -3 3  4 0  4 2 -4 2  4 4 -4 4  5 1 -5 1
         5 3 -5 3  5 5 -5 5  6 0  6 2 -6 2  6 4 -6 4  6 6 -6 6

:CHA012: TOTAL VALENCE CHARGE INSIDE SPHERE  12 =     8.164089
:PCS012: PARTIAL CHARGES SPHERE = 12 S,P,D,F,PX,PY,PZ,D-Z2,D-X2Y2,D-XY,D-XZ,D-YZ 
:QTL012: 2.0683 6.0468 0.0381 0.0086 2.0156 2.0156 2.0156 0.0153 0.0153 0.0025 0.0025 0.0025
        Q-s-low E-s-low   Q-p-low E-p-low   Q-d-low E-d-low   Q-f-low E-f-low
:EPL012:  2.0019 -3.7317    5.9709 -1.6724    0.0030 -1.0434    0.0009 -1.0482
        Q-s-hi  E-s-hi    Q-p-hi  E-p-hi    Q-d-hi  E-d-hi    Q-f-hi  E-f-hi 
:EPH012:  0.0665 -0.2368    0.0759 -0.2038    0.0350 -0.1847    0.0077 -0.1811

                      QXX         QXY         QYY         QZZ       UP TO R

:VZZ012:            -0.00011    -0.00001    -0.00009     0.00020       2.500




:POS013: ATOM  -13 POSITION = 0.25093 0.25000 0.25000  MULTIPLICITY = 1  ZZ= 17.000  Cl13      

       LMMAX 10
       LM=   0 0  1 0  2 0  3 0  4 0  4 4  5 0  5 4  6 0  6 4

:CHA013: TOTAL VALENCE CHARGE INSIDE SPHERE  13 =     6.400326
:PCS013: PARTIAL CHARGES SPHERE = 13 S,P,D,F,PZ,PXY,,D-Z2,D-XY,D-X2Y2,D-XZ,YZ 
:QTL013: 1.8311 4.5642 0.0042 0.0007 1.5214 3.0428 0.0000 0.0008 0.0009 0.0008 0.0017 0.0000
        Q-s-low E-s-low   Q-p-low E-p-low   Q-d-low E-d-low   Q-f-low E-f-low
:EPL013:  1.8245 -1.0464    0.0015 -1.6211    0.0006 -1.6973    0.0002 -1.7330
        Q-s-hi  E-s-hi    Q-p-hi  E-p-hi    Q-d-hi  E-d-hi    Q-f-hi  E-f-hi 
:EPH013:  0.0066 -0.2234    4.5627 -0.1943    0.0036 -0.2004    0.0004 -0.1869
:VZZ013: EFG INSIDE SPHERE  13 =    -0.000035      UP TO R =   2.50000




:POS014: ATOM  -14 POSITION = 0.75000 0.25000 0.25000  MULTIPLICITY = 1  ZZ= 17.000  Cl14      

       LMMAX 10
       LM=   0 0  1 0  2 0  3 0  4 0  4 4  5 0  5 4  6 0  6 4

:CHA014: TOTAL VALENCE CHARGE INSIDE SPHERE  14 =     6.400316
:PCS014: PARTIAL CHARGES SPHERE = 14 S,P,D,F,PZ,PXY,,D-Z2,D-XY,D-X2Y2,D-XZ,YZ 
:QTL014: 1.8311 4.5642 0.0042 0.0007 1.5214 3.0428 0.0000 0.0008 0.0009 0.0008 0.0017 0.0000
        Q-s-low E-s-low   Q-p-low E-p-low   Q-d-low E-d-low   Q-f-low E-f-low
:EPL014:  1.8245 -1.0464    0.0015 -1.6211    0.0006 -1.6973    0.0002 -1.7329
        Q-s-hi  E-s-hi    Q-p-hi  E-p-hi    Q-d-hi  E-d-hi    Q-f-hi  E-f-hi 
:EPH014:  0.0066 -0.2234    4.5627 -0.1943    0.0036 -0.2004    0.0004 -0.1869
:VZZ014: EFG INSIDE SPHERE  14 =     0.000513      UP TO R =   2.50000




:POS015: ATOM  -15 POSITION = 0.25000 0.75000 0.25000  MULTIPLICITY = 2  ZZ= 17.000  Cl15      

       LMMAX 16
       LM=   0 0  1 0  2 0  2 2  3 0  3 2  4 0  4 2  4 4  5 0  5 2  5 4  6 0  6 2  6 4  6 6

:CHA015: TOTAL VALENCE CHARGE INSIDE SPHERE  15 =     6.400320
:PCS015: PARTIAL CHARGES SPHERE = 15 S,P,D,F,PX,PY,PZ,D-Z2,D-X2Y2,D-XY,D-XZ,D-YZ 
:QTL015: 1.8311 4.5642 0.0042 0.0007 1.5214 1.5214 1.5214 0.0008 0.0008 0.0009 0.0009 0.0009
        Q-s-low E-s-low   Q-p-low E-p-low   Q-d-low E-d-low   Q-f-low E-f-low
:EPL015:  1.8245 -1.0464    0.0015 -1.6211    0.0006 -1.6973    0.0002 -1.7329
        Q-s-hi  E-s-hi    Q-p-hi  E-p-hi    Q-d-hi  E-d-hi    Q-f-hi  E-f-hi 
:EPH015:  0.0066 -0.2234    4.5627 -0.1943    0.0036 -0.2004    0.0004 -0.1869

                      VXX         VYY         VZZ       UP TO R

:VZZ015:            -0.00019    -0.00004     0.00023       2.500




:POS016: ATOM  -16 POSITION = 0.75000 0.75000 0.25000  MULTIPLICITY = 2  ZZ= 17.000  Cl16      

       LMMAX 16
       LM=   0 0  1 0  2 0  2 2  3 0  3 2  4 0  4 2  4 4  5 0  5 2  5 4  6 0  6 2  6 4  6 6

:CHA016: TOTAL VALENCE CHARGE INSIDE SPHERE  16 =     6.400320
:PCS016: PARTIAL CHARGES SPHERE = 16 S,P,D,F,PX,PY,PZ,D-Z2,D-X2Y2,D-XY,D-XZ,D-YZ 
:QTL016: 1.8311 4.5642 0.0042 0.0007 1.5214 1.5214 1.5214 0.0008 0.0008 0.0009 0.0009 0.0009
        Q-s-low E-s-low   Q-p-low E-p-low   Q-d-low E-d-low   Q-f-low E-f-low
:EPL016:  1.8245 -1.0464    0.0015 -1.6211    0.0006 -1.6973    0.0002 -1.7329
        Q-s-hi  E-s-hi    Q-p-hi  E-p-hi    Q-d-hi  E-d-hi    Q-f-hi  E-f-hi 
:EPH016:  0.0066 -0.2234    4.5627 -0.1943    0.0036 -0.2004    0.0004 -0.1869

                      VXX         VYY         VZZ       UP TO R

:VZZ016:            -0.00019    -0.00005     0.00024       2.500




:POS017: ATOM  -17 POSITION = 0.25000 0.75000 0.75000  MULTIPLICITY = 1  ZZ= 17.000  Cl17      

       LMMAX 10
       LM=   0 0  1 0  2 0  3 0  4 0  4 4  5 0  5 4  6 0  6 4

:CHA017: TOTAL VALENCE CHARGE INSIDE SPHERE  17 =     6.400323
:PCS017: PARTIAL CHARGES SPHERE = 17 S,P,D,F,PZ,PXY,,D-Z2,D-XY,D-X2Y2,D-XZ,YZ 
:QTL017: 1.8311 4.5642 0.0042 0.0007 1.5214 3.0428 0.0000 0.0008 0.0009 0.0008 0.0017 0.0000
        Q-s-low E-s-low   Q-p-low E-p-low   Q-d-low E-d-low   Q-f-low E-f-low
:EPL017:  1.8245 -1.0464    0.0015 -1.6211    0.0006 -1.6973    0.0002 -1.7330
        Q-s-hi  E-s-hi    Q-p-hi  E-p-hi    Q-d-hi  E-d-hi    Q-f-hi  E-f-hi 
:EPH017:  0.0066 -0.2234    4.5627 -0.1943    0.0036 -0.2004    0.0004 -0.1869
:VZZ017: EFG INSIDE SPHERE  17 =    -0.000031      UP TO R =   2.50000




:POS018: ATOM  -18 POSITION = 0.75000 0.75000 0.75000  MULTIPLICITY = 1  ZZ= 17.000  Cl18      

       LMMAX 10
       LM=   0 0  1 0  2 0  3 0  4 0  4 4  5 0  5 4  6 0  6 4

:CHA018: TOTAL VALENCE CHARGE INSIDE SPHERE  18 =     6.400323
:PCS018: PARTIAL CHARGES SPHERE = 18 S,P,D,F,PZ,PXY,,D-Z2,D-XY,D-X2Y2,D-XZ,YZ 
:QTL018: 1.8311 4.5642 0.0042 0.0007 1.5214 3.0428 0.0000 0.0008 0.0009 0.0008 0.0017 0.0000
        Q-s-low E-s-low   Q-p-low E-p-low   Q-d-low E-d-low   Q-f-low E-f-low
:EPL018:  1.8245 -1.0464    0.0015 -1.6211    0.0006 -1.6973    0.0002 -1.7330
        Q-s-hi  E-s-hi    Q-p-hi  E-p-hi    Q-d-hi  E-d-hi    Q-f-hi  E-f-hi 
:EPH018:  0.0066 -0.2234    4.5627 -0.1943    0.0036 -0.2004    0.0004 -0.1869
:VZZ018: EFG INSIDE SPHERE  18 =    -0.000025      UP TO R =   2.50000




:POS019: ATOM  -19 POSITION = 0.25000 0.00000 0.00000  MULTIPLICITY = 4  ZZ= 17.000  Cl19      

       LMMAX 28
       LM=   0 0  1 1 -1 1  2 0  2 2 -2 2  3 1 -3 1  3 3 -3 3  4 0  4 2 -4 2  4 4 -4 4  5 1 -5 1
         5 3 -5 3  5 5 -5 5  6 0  6 2 -6 2  6 4 -6 4  6 6 -6 6

:CHA019: TOTAL VALENCE CHARGE INSIDE SPHERE  19 =     6.400319
:PCS019: PARTIAL CHARGES SPHERE = 19 S,P,D,F,PX,PY,PZ,D-Z2,D-X2Y2,D-XY,D-XZ,D-YZ 
:QTL019: 1.8311 4.5642 0.0042 0.0007 1.5214 1.5214 1.5214 0.0009 0.0008 0.0009 0.0009 0.0008
        Q-s-low E-s-low   Q-p-low E-p-low   Q-d-low E-d-low   Q-f-low E-f-low
:EPL019:  1.8245 -1.0464    0.0015 -1.6211    0.0006 -1.6973    0.0002 -1.7329
        Q-s-hi  E-s-hi    Q-p-hi  E-p-hi    Q-d-hi  E-d-hi    Q-f-hi  E-f-hi 
:EPH019:  0.0066 -0.2234    4.5627 -0.1943    0.0036 -0.2004    0.0004 -0.1869

                      QXX         QXY         QYY         QZZ       UP TO R

:VZZ019:            -0.00072    -0.00383     0.00038     0.00034       2.500




:POS020: ATOM  -20 POSITION = 0.75000 0.00000 0.00000  MULTIPLICITY = 4  ZZ= 17.000  Cl20      

       LMMAX 28
       LM=   0 0  1 1 -1 1  2 0  2 2 -2 2  3 1 -3 1  3 3 -3 3  4 0  4 2 -4 2  4 4 -4 4  5 1 -5 1
         5 3 -5 3  5 5 -5 5  6 0  6 2 -6 2  6 4 -6 4  6 6 -6 6

:CHA020: TOTAL VALENCE CHARGE INSIDE SPHERE  20 =     6.400319
:PCS020: PARTIAL CHARGES SPHERE = 20 S,P,D,F,PX,PY,PZ,D-Z2,D-X2Y2,D-XY,D-XZ,D-YZ 
:QTL020: 1.8311 4.5642 0.0042 0.0007 1.5214 1.5214 1.5214 0.0009 0.0008 0.0009 0.0009 0.0008
        Q-s-low E-s-low   Q-p-low E-p-low   Q-d-low E-d-low   Q-f-low E-f-low
:EPL020:  1.8245 -1.0464    0.0015 -1.6211    0.0006 -1.6973    0.0002 -1.7329
        Q-s-hi  E-s-hi    Q-p-hi  E-p-hi    Q-d-hi  E-d-hi    Q-f-hi  E-f-hi 
:EPH020:  0.0066 -0.2234    4.5627 -0.1943    0.0036 -0.2004    0.0004 -0.1869

                      QXX         QXY         QYY         QZZ       UP TO R

:VZZ020:            -0.00070     0.00123     0.00035     0.00035       2.500




:POS021: ATOM  -21 POSITION = 0.00000 0.25000 0.00000  MULTIPLICITY = 4  ZZ= 17.000  Cl21      

       LMMAX 28
       LM=   0 0  1 1 -1 1  2 0  2 2 -2 2  3 1 -3 1  3 3 -3 3  4 0  4 2 -4 2  4 4 -4 4  5 1 -5 1
         5 3 -5 3  5 5 -5 5  6 0  6 2 -6 2  6 4 -6 4  6 6 -6 6

:CHA021: TOTAL VALENCE CHARGE INSIDE SPHERE  21 =     6.400307
:PCS021: PARTIAL CHARGES SPHERE = 21 S,P,D,F,PX,PY,PZ,D-Z2,D-X2Y2,D-XY,D-XZ,D-YZ 
:QTL021: 1.8311 4.5642 0.0042 0.0007 1.5213 1.5214 1.5214 0.0008 0.0008 0.0009 0.0009 0.0009
        Q-s-low E-s-low   Q-p-low E-p-low   Q-d-low E-d-low   Q-f-low E-f-low
:EPL021:  1.8245 -1.0466    0.0015 -1.6214    0.0006 -1.6975    0.0002 -1.7331
        Q-s-hi  E-s-hi    Q-p-hi  E-p-hi    Q-d-hi  E-d-hi    Q-f-hi  E-f-hi 
:EPH021:  0.0066 -0.2234    4.5627 -0.1945    0.0036 -0.2004    0.0004 -0.1870

                      QXX         QXY         QYY         QZZ       UP TO R

:VZZ021:             0.00657     0.00817    -0.00054    -0.00603       2.500




:POS022: ATOM  -22 POSITION = 0.50000 0.25000 0.00000  MULTIPLICITY = 4  ZZ= 17.000  Cl22      

       LMMAX 28
       LM=   0 0  1 1 -1 1  2 0  2 2 -2 2  3 1 -3 1  3 3 -3 3  4 0  4 2 -4 2  4 4 -4 4  5 1 -5 1
         5 3 -5 3  5 5 -5 5  6 0  6 2 -6 2  6 4 -6 4  6 6 -6 6

:CHA022: TOTAL VALENCE CHARGE INSIDE SPHERE  22 =     6.400356
:PCS022: PARTIAL CHARGES SPHERE = 22 S,P,D,F,PX,PY,PZ,D-Z2,D-X2Y2,D-XY,D-XZ,D-YZ 
:QTL022: 1.8311 4.5642 0.0042 0.0007 1.5215 1.5214 1.5214 0.0008 0.0008 0.0009 0.0009 0.0009
        Q-s-low E-s-low   Q-p-low E-p-low   Q-d-low E-d-low   Q-f-low E-f-low
:EPL022:  1.8245 -1.0462    0.0015 -1.6208    0.0006 -1.6971    0.0002 -1.7327
        Q-s-hi  E-s-hi    Q-p-hi  E-p-hi    Q-d-hi  E-d-hi    Q-f-hi  E-f-hi 
:EPH022:  0.0066 -0.2234    4.5627 -0.1941    0.0036 -0.2003    0.0004 -0.1869

                      QXX         QXY         QYY         QZZ       UP TO R

:VZZ022:            -0.00642     0.00820     0.00146     0.00496       2.500




:POS023: ATOM  -23 POSITION = 0.00000 0.75000 0.00000  MULTIPLICITY = 4  ZZ= 17.000  Cl23      

       LMMAX 28
       LM=   0 0  1 1 -1 1  2 0  2 2 -2 2  3 1 -3 1  3 3 -3 3  4 0  4 2 -4 2  4 4 -4 4  5 1 -5 1
         5 3 -5 3  5 5 -5 5  6 0  6 2 -6 2  6 4 -6 4  6 6 -6 6

:CHA023: TOTAL VALENCE CHARGE INSIDE SPHERE  23 =     6.400333
:PCS023: PARTIAL CHARGES SPHERE = 23 S,P,D,F,PX,PY,PZ,D-Z2,D-X2Y2,D-XY,D-XZ,D-YZ 
:QTL023: 1.8311 4.5642 0.0042 0.0007 1.5214 1.5214 1.5214 0.0008 0.0008 0.0009 0.0009 0.0009
        Q-s-low E-s-low   Q-p-low E-p-low   Q-d-low E-d-low   Q-f-low E-f-low
:EPL023:  1.8245 -1.0464    0.0015 -1.6211    0.0006 -1.6974    0.0002 -1.7330
        Q-s-hi  E-s-hi    Q-p-hi  E-p-hi    Q-d-hi  E-d-hi    Q-f-hi  E-f-hi 
:EPH023:  0.0066 -0.2234    4.5627 -0.1944    0.0036 -0.2004    0.0004 -0.1870

                      QXX         QXY         QYY         QZZ       UP TO R

:VZZ023:             0.00078    -0.00004    -0.00072    -0.00006       2.500




[...]

       17.ATOM      Cl17                  4 CORE STATES
       CORE-FORCE in mRy/a.u. = |F|      Fx             Fy             Fz
:FCO017:  17.ATOM          0.062          0.000          0.000         -0.062

:1S 017: 1S                -201.646077198 Ry
:2S 017: 2S                 -18.028646443 Ry
:2PP017: 2P*                -13.622265926 Ry
:2P 017: 2P                 -13.497595842 Ry

       18.ATOM      Cl18                  4 CORE STATES
       CORE-FORCE in mRy/a.u. = |F|      Fx             Fy             Fz
:FCO018:  18.ATOM          0.062          0.000          0.000          0.062

:1S 018: 1S                -201.646077004 Ry
:2S 018: 2S                 -18.028646247 Ry
:2PP018: 2P*                -13.622265730 Ry
:2P 018: 2P                 -13.497595647 Ry

       19.ATOM      Cl19                  4 CORE STATES
       CORE-FORCE in mRy/a.u. = |F|      Fx             Fy             Fz
:FCO019:  19.ATOM          0.277          0.277          0.005          0.000

:1S 019: 1S                -201.646077293 Ry
:2S 019: 2S                 -18.028646501 Ry
:2PP019: 2P*                -13.622265990 Ry
:2P 019: 2P                 -13.497595906 Ry

       20.ATOM      Cl20                  4 CORE STATES
       CORE-FORCE in mRy/a.u. = |F|      Fx             Fy             Fz
:FCO020:  20.ATOM          0.184         -0.184          0.007          0.000

:1S 020: 1S                -201.646076769 Ry
:2S 020: 2S                 -18.028645974 Ry
:2PP020: 2P*                -13.622265464 Ry
:2P 020: 2P                 -13.497595380 Ry

       21.ATOM      Cl21                  4 CORE STATES
       CORE-FORCE in mRy/a.u. = |F|      Fx             Fy             Fz
:FCO021:  21.ATOM          0.738          0.623          0.396          0.000

:1S 021: 1S                -201.646261430 Ry
:2S 021: 2S                 -18.028832442 Ry
:2PP021: 2P*                -13.622451738 Ry
:2P 021: 2P                 -13.497781665 Ry

       22.ATOM      Cl22                  4 CORE STATES
       CORE-FORCE in mRy/a.u. = |F|      Fx             Fy             Fz
:FCO022:  22.ATOM          0.721         -0.602          0.397          0.000

:1S 022: 1S                -201.645872536 Ry
:2S 022: 2S                 -18.028441152 Ry
:2PP022: 2P*                -13.622060698 Ry
:2P 022: 2P                 -13.497390610 Ry

       23.ATOM      Cl23                  4 CORE STATES
       CORE-FORCE in mRy/a.u. = |F|      Fx             Fy             Fz
:FCO023:  23.ATOM          0.082          0.082         -0.005          0.000

:1S 023: 1S                -201.646105985 Ry
:2S 023: 2S                 -18.028676380 Ry
:2PP023: 2P*                -13.622295739 Ry
:2P 023: 2P                 -13.497625663 Ry

       24.ATOM      Cl24                  4 CORE STATES
       CORE-FORCE in mRy/a.u. = |F|      Fx             Fy             Fz
:FCO024:  24.ATOM          0.052         -0.052         -0.005          0.000

:1S 024: 1S                -201.646030354 Ry
:2S 024: 2S                 -18.028599756 Ry
:2PP024: 2P*                -13.622219220 Ry
:2P 024: 2P                 -13.497549137 Ry

       DENSITY AT NUCLEUS
        JATOM    VALENCE       SEMI-CORE            CORE           TOTAL
:RTO001:   1       50.044757        0.000000      823.018011      873.062768
:RTO002:   2       50.047315        0.000000      823.017862      873.065177
:RTO003:   3       50.048126        0.000000      823.017852      873.065979
:RTO004:   4       50.047634        0.000000      823.017812      873.065447
:RTO005:   5       50.044803        0.000000      823.018013      873.062816
:RTO006:   6       50.047279        0.000000      823.017868      873.065147
:RTO007:   7       50.044409        0.000000      823.018036      873.062445
:RTO008:   8       50.044012        0.000000      823.018059      873.062071
:RTO009:   9       50.044196        0.000000      823.018049      873.062244
:RTO010:  10       50.044191        0.000000      823.018049      873.062240
:RTO011:  11       50.044183        0.000000      823.018049      873.062232
:RTO012:  12       50.044198        0.000000      823.018048      873.062246
:RTO013:  13       25.473609        0.000000     3536.577559     3562.051169
:RTO014:  14       25.473608        0.000000     3536.577567     3562.051176
:RTO015:  15       25.473586        0.000000     3536.577568     3562.051153
:RTO016:  16       25.473586        0.000000     3536.577568     3562.051153
:RTO017:  17       25.473563        0.000000     3536.577568     3562.051131
:RTO018:  18       25.473563        0.000000     3536.577568     3562.051131
:RTO019:  19       25.473585        0.000000     3536.577568     3562.051153
:RTO020:  20       25.473585        0.000000     3536.577568     3562.051153
:RTO021:  21       25.473523        0.000000     3536.577549     3562.051071
:RTO022:  22       25.473582        0.000000     3536.577575     3562.051157
:RTO023:  23       25.473544        0.000000     3536.577555     3562.051100
:RTO024:  24       25.473553        0.000000     3536.577567     3562.051120
 Note: symmetry trapping
     
       CHARGES OF NEW CHARGE DENSITY
:NTO  : TOTAL   INTERSTITIAL CHARGE=   45.9387096
:NTO001: TOTAL   CHARGE IN SPHERE  1 =       10.1640828
:NTO002: TOTAL   CHARGE IN SPHERE  2 =       10.1640728
:NTO003: TOTAL   CHARGE IN SPHERE  3 =       10.1632491
:NTO004: TOTAL   CHARGE IN SPHERE  4 =       10.1649621
:NTO005: TOTAL   CHARGE IN SPHERE  5 =       10.1640828
:NTO006: TOTAL   CHARGE IN SPHERE  6 =       10.1640961
:NTO007: TOTAL   CHARGE IN SPHERE  7 =       10.1640887
:NTO008: TOTAL   CHARGE IN SPHERE  8 =       10.1640918
:NTO009: TOTAL   CHARGE IN SPHERE  9 =       10.1640886
:NTO010: TOTAL   CHARGE IN SPHERE 10 =       10.1640869
:NTO011: TOTAL   CHARGE IN SPHERE 11 =       10.1640884
:NTO012: TOTAL   CHARGE IN SPHERE 12 =       10.1640886
:NTO013: TOTAL   CHARGE IN SPHERE 13 =       16.4003247
:NTO014: TOTAL   CHARGE IN SPHERE 14 =       16.4003147
:NTO015: TOTAL   CHARGE IN SPHERE 15 =       16.4003179
:NTO016: TOTAL   CHARGE IN SPHERE 16 =       16.4003180
:NTO017: TOTAL   CHARGE IN SPHERE 17 =       16.4003212
:NTO018: TOTAL   CHARGE IN SPHERE 18 =       16.4003212
:NTO019: TOTAL   CHARGE IN SPHERE 19 =       16.4003173
:NTO020: TOTAL   CHARGE IN SPHERE 20 =       16.4003174
:NTO021: TOTAL   CHARGE IN SPHERE 21 =       16.4003057
:NTO022: TOTAL   CHARGE IN SPHERE 22 =       16.4003545
:NTO023: TOTAL   CHARGE IN SPHERE 23 =       16.4003312
:NTO024: TOTAL   CHARGE IN SPHERE 24 =       16.4003313

:NEC01: NUCLEAR AND ELECTRONIC CHARGE    896.00000   895.99988     1.00000
     
       CHARGES OF OLD CHARGE DENSITY
:OTO  : TOTAL   INTERSTITIAL CHARGE=   45.9388343
:OTO001: TOTAL   CHARGE IN SPHERE  1 =       10.1640828
:OTO002: TOTAL   CHARGE IN SPHERE  2 =       10.1640728
:OTO003: TOTAL   CHARGE IN SPHERE  3 =       10.1632491
:OTO004: TOTAL   CHARGE IN SPHERE  4 =       10.1649621
:OTO005: TOTAL   CHARGE IN SPHERE  5 =       10.1640828
:OTO006: TOTAL   CHARGE IN SPHERE  6 =       10.1640961
:OTO007: TOTAL   CHARGE IN SPHERE  7 =       10.1640887
:OTO008: TOTAL   CHARGE IN SPHERE  8 =       10.1640918
:OTO009: TOTAL   CHARGE IN SPHERE  9 =       10.1640886
:OTO010: TOTAL   CHARGE IN SPHERE 10 =       10.1640869
:OTO011: TOTAL   CHARGE IN SPHERE 11 =       10.1640884
:OTO012: TOTAL   CHARGE IN SPHERE 12 =       10.1640886
:OTO013: TOTAL   CHARGE IN SPHERE 13 =       16.4003247
:OTO014: TOTAL   CHARGE IN SPHERE 14 =       16.4003147
:OTO015: TOTAL   CHARGE IN SPHERE 15 =       16.4003179
:OTO016: TOTAL   CHARGE IN SPHERE 16 =       16.4003180
:OTO017: TOTAL   CHARGE IN SPHERE 17 =       16.4003212
:OTO018: TOTAL   CHARGE IN SPHERE 18 =       16.4003212
:OTO019: TOTAL   CHARGE IN SPHERE 19 =       16.4003173
:OTO020: TOTAL   CHARGE IN SPHERE 20 =       16.4003174
:OTO021: TOTAL   CHARGE IN SPHERE 21 =       16.4003057
:OTO022: TOTAL   CHARGE IN SPHERE 22 =       16.4003545
:OTO023: TOTAL   CHARGE IN SPHERE 23 =       16.4003312
:OTO024: TOTAL   CHARGE IN SPHERE 24 =       16.4003313

:NEC02: NUCLEAR AND ELECTRONIC CHARGE    896.00000   896.00000     1.00000
     
       CONVERGENCE TEST
:DTO001: TOTAL   DIFFERENCE CHARGE**2 IN SPHERE  1 =  0.0000000
:DTO002: TOTAL   DIFFERENCE CHARGE**2 IN SPHERE  2 =  0.0000000
:DTO003: TOTAL   DIFFERENCE CHARGE**2 IN SPHERE  3 =  0.0000000
:DTO004: TOTAL   DIFFERENCE CHARGE**2 IN SPHERE  4 =  0.0000000
:DTO005: TOTAL   DIFFERENCE CHARGE**2 IN SPHERE  5 =  0.0000000
:DTO006: TOTAL   DIFFERENCE CHARGE**2 IN SPHERE  6 =  0.0000000
:DTO007: TOTAL   DIFFERENCE CHARGE**2 IN SPHERE  7 =  0.0000000
:DTO008: TOTAL   DIFFERENCE CHARGE**2 IN SPHERE  8 =  0.0000000
:DTO009: TOTAL   DIFFERENCE CHARGE**2 IN SPHERE  9 =  0.0000000
:DTO010: TOTAL   DIFFERENCE CHARGE**2 IN SPHERE 10 =  0.0000000
:DTO011: TOTAL   DIFFERENCE CHARGE**2 IN SPHERE 11 =  0.0000000
:DTO012: TOTAL   DIFFERENCE CHARGE**2 IN SPHERE 12 =  0.0000000
:DTO013: TOTAL   DIFFERENCE CHARGE**2 IN SPHERE 13 =  0.0000000
:DTO014: TOTAL   DIFFERENCE CHARGE**2 IN SPHERE 14 =  0.0000000
:DTO015: TOTAL   DIFFERENCE CHARGE**2 IN SPHERE 15 =  0.0000000
:DTO016: TOTAL   DIFFERENCE CHARGE**2 IN SPHERE 16 =  0.0000000
:DTO017: TOTAL   DIFFERENCE CHARGE**2 IN SPHERE 17 =  0.0000000
:DTO018: TOTAL   DIFFERENCE CHARGE**2 IN SPHERE 18 =  0.0000000
:DTO019: TOTAL   DIFFERENCE CHARGE**2 IN SPHERE 19 =  0.0000000
:DTO020: TOTAL   DIFFERENCE CHARGE**2 IN SPHERE 20 =  0.0000000
:DTO021: TOTAL   DIFFERENCE CHARGE**2 IN SPHERE 21 =  0.0000000
:DTO022: TOTAL   DIFFERENCE CHARGE**2 IN SPHERE 22 =  0.0000000
:DTO023: TOTAL   DIFFERENCE CHARGE**2 IN SPHERE 23 =  0.0000000
:DTO024: TOTAL   DIFFERENCE CHARGE**2 IN SPHERE 24 =  0.0000000

:DIS  :  CHARGE DISTANCE       ( 0.0000000 for atom    2 spin 1)      0.0000000
:BIG check (qbig,qrms,qtot)    0.191D-09   0.204D-09   0.266D-09
 
******************************************************
* MULTISECANT MIXING VER4 OPTIONS                    *
* Unpredicted Step Limit   0.100000                  *
* Plane Wave Dynamic Rescaling                       *
* Dynamic Regularization active                      *
* Upper Cutoff Lambda  1.0E-01 Lower 3.5E-04         *
* SQRT Multiplicity/Degeneracy                       *
* Max Number of Memory Steps    8                    *
******************************************************
 
:PLANE:  INTERSTITIAL TOTAL      3.54440 DISTAN  1.528E-08 % 
:CHARG:  CLM CHARGE   /ATOM     13.53766 DISTAN  1.480E-09 % 
:INFO :  Dynamic rescale   1.072E+01  1.000E-01
:INFO :  Number of Memory Steps    7 Skipping    0
:INFO :  Singular value   6.168E+00 Weight   1.000E+00 Projections  -2.125E-10  4.143E-12
:INFO :  Singular value   3.261E+00 Weight   1.000E+00 Projections  -2.174E-10 -2.347E-09
:INFO :  Singular value   1.608E+00 Weight   1.000E+00 Projections  -2.482E-10 -5.517E-09
:INFO :  Singular value   1.401E+00 Weight   1.000E+00 Projections  -2.018E-10  4.679E-09
:INFO :  Singular value   5.541E-06 Weight   2.505E-04 Projections   6.521E-10  9.480E-11
:INFO :  Singular value   8.499E-08 Weight   5.897E-08 Projections   5.196E-10 -8.504E-14
:INFO :  Singular value   1.535E-08 Weight   1.924E-09 Projections  -7.547E-09 -2.106E-15
:INFO :  Bounds         0.177D+00  0.200D+00  0.303D+00  0.177D+00
:DIRM :  MEMORY 7/8 RESCALE  10.72 RED 0.696 PRED 0.814 NEXT 0.330 COND 8.81E-01
:DIRP :  |BROYD|= 4.837E-09 |PRATT|= 1.025E-09 ANGLE=   5.7 DEGREES
:DIRB :  |BROYD|= 6.146E-09 |PRATT|= 1.331E-09 ANGLE=  10.0 DEGREES
:MIX  :  MSR1   REGULARIZATION: 3.50E-04  GREED: 0.177
     
       CHARGES OF MIXED CHARGE DENSITY
:CTO  : TOTAL   INTERSTITIAL CHARGE=   45.9388343
:CTO001: TOTAL   CHARGE IN SPHERE  1 =       10.1640828
:CTO002: TOTAL   CHARGE IN SPHERE  2 =       10.1640728
:CTO003: TOTAL   CHARGE IN SPHERE  3 =       10.1632491
:CTO004: TOTAL   CHARGE IN SPHERE  4 =       10.1649621
:CTO005: TOTAL   CHARGE IN SPHERE  5 =       10.1640828
:CTO006: TOTAL   CHARGE IN SPHERE  6 =       10.1640961
:CTO007: TOTAL   CHARGE IN SPHERE  7 =       10.1640887
:CTO008: TOTAL   CHARGE IN SPHERE  8 =       10.1640918
:CTO009: TOTAL   CHARGE IN SPHERE  9 =       10.1640886
:CTO010: TOTAL   CHARGE IN SPHERE 10 =       10.1640869
:CTO011: TOTAL   CHARGE IN SPHERE 11 =       10.1640884
:CTO012: TOTAL   CHARGE IN SPHERE 12 =       10.1640886
:CTO013: TOTAL   CHARGE IN SPHERE 13 =       16.4003247
:CTO014: TOTAL   CHARGE IN SPHERE 14 =       16.4003147
:CTO015: TOTAL   CHARGE IN SPHERE 15 =       16.4003179
:CTO016: TOTAL   CHARGE IN SPHERE 16 =       16.4003180
:CTO017: TOTAL   CHARGE IN SPHERE 17 =       16.4003212
:CTO018: TOTAL   CHARGE IN SPHERE 18 =       16.4003212
:CTO019: TOTAL   CHARGE IN SPHERE 19 =       16.4003173
:CTO020: TOTAL   CHARGE IN SPHERE 20 =       16.4003174
:CTO021: TOTAL   CHARGE IN SPHERE 21 =       16.4003057
:CTO022: TOTAL   CHARGE IN SPHERE 22 =       16.4003545
:CTO023: TOTAL   CHARGE IN SPHERE 23 =       16.4003312
:CTO024: TOTAL   CHARGE IN SPHERE 24 =       16.4003313

:NEC03: NUCLEAR AND ELECTRONIC CHARGE    896.00000   896.00000     1.00000


:ENE  : ********** TOTAL ENERGY IN Ry =       -39940.36220506

       TOTAL FORCE IN mRy/a.u. = |F|     Fx             Fy             Fz     with/without FOR in case.in2
:FOR001:   1.ATOM       0.025179       0.003000       0.025000       0.000000 total forces
:FOR002:   2.ATOM       0.026173       0.003000      -0.026000       0.000000 total forces
:FOR003:   3.ATOM       0.197000       0.000000       0.000000       0.197000 total forces
:FOR004:   4.ATOM       0.215000       0.000000       0.000000       0.215000 total forces
:FOR005:   5.ATOM       0.002000       0.000000       0.000000       0.002000 total forces
:FOR006:   6.ATOM       0.003000       0.000000       0.000000       0.003000 total forces
:FOR007:   7.ATOM       0.000000       0.000000       0.000000       0.000000 total forces
:FOR008:   8.ATOM       0.000000       0.000000       0.000000       0.000000 total forces
:FOR009:   9.ATOM       0.013454      -0.009000       0.010000       0.000000 total forces
:FOR010:  10.ATOM       0.069721       0.069000       0.010000       0.000000 total forces
:FOR011:  11.ATOM       0.040262      -0.039000       0.010000       0.000000 total forces
:FOR012:  12.ATOM       0.013454       0.009000       0.010000       0.000000 total forces
:FOR013:  13.ATOM       0.977000       0.000000       0.000000      -0.977000 total forces
:FOR014:  14.ATOM       0.056000       0.000000       0.000000       0.056000 total forces
:FOR015:  15.ATOM       0.023000       0.000000       0.000000      -0.023000 total forces
:FOR016:  16.ATOM       0.027000       0.000000       0.000000       0.027000 total forces
:FOR017:  17.ATOM       0.007000       0.000000       0.000000      -0.007000 total forces
:FOR018:  18.ATOM       0.007000       0.000000       0.000000       0.007000 total forces
:FOR019:  19.ATOM       0.033015       0.033000       0.001000       0.000000 total forces
:FOR020:  20.ATOM       0.021024      -0.021000       0.001000       0.000000 total forces
:FOR021:  21.ATOM       0.106532       0.090000       0.057000       0.000000 total forces
:FOR022:  22.ATOM       0.099624      -0.081000       0.058000       0.000000 total forces
:FOR023:  23.ATOM       0.014036       0.014000      -0.001000       0.000000 total forces
:FOR024:  24.ATOM       0.001000      -0.001000       0.000000       0.000000 total forces

       TOTAL FORCE WITH RESPECT TO GLOBAL CARTESIAN COORDINATES:
:FCA001:   1.ATOM                     -0.003000      -0.017678      -0.017678 total forces
:FCA002:   2.ATOM                     -0.003000       0.018385       0.018385 total forces
:FCA003:   3.ATOM                      0.197000       0.000000       0.000000 total forces
:FCA004:   4.ATOM                      0.215000       0.000000       0.000000 total forces
:FCA005:   5.ATOM                      0.002000       0.000000       0.000000 total forces
:FCA006:   6.ATOM                      0.003000       0.000000       0.000000 total forces
:FCA007:   7.ATOM                      0.000000       0.000000       0.000000 total forces
:FCA008:   8.ATOM                      0.000000       0.000000       0.000000 total forces
:FCA009:   9.ATOM                     -0.009000       0.010000       0.000000 total forces
:FCA010:  10.ATOM                      0.069000       0.010000       0.000000 total forces
:FCA011:  11.ATOM                     -0.039000       0.010000       0.000000 total forces
:FCA012:  12.ATOM                      0.009000       0.010000       0.000000 total forces
:FCA013:  13.ATOM                     -0.977000       0.000000       0.000000 total forces
:FCA014:  14.ATOM                      0.056000       0.000000       0.000000 total forces
:FCA015:  15.ATOM                     -0.023000       0.000000       0.000000 total forces
:FCA016:  16.ATOM                      0.027000       0.000000       0.000000 total forces
:FCA017:  17.ATOM                     -0.007000       0.000000       0.000000 total forces
:FCA018:  18.ATOM                      0.007000       0.000000       0.000000 total forces
:FCA019:  19.ATOM                     -0.033000      -0.000707      -0.000707 total forces
:FCA020:  20.ATOM                      0.021000      -0.000707      -0.000707 total forces
:FCA021:  21.ATOM                      0.057000       0.000000       0.090000 total forces
:FCA022:  22.ATOM                      0.058000       0.000000      -0.081000 total forces
:FCA023:  23.ATOM                     -0.001000       0.000000       0.014000 total forces
:FCA024:  24.ATOM                      0.000000       0.000000      -0.001000 total forces

       TOTAL FORCE WITH RESPECT TO THE GLOBAL COORDINATE SYSTEM:
:FGL001:   1.ATOM                -0.003000000    -0.017677670    -0.017677670 total forces
:FGL002:   2.ATOM                -0.003000000     0.018384776     0.018384776 total forces
:FGL003:   3.ATOM                 0.197000000     0.000000000     0.000000000 total forces
:FGL004:   4.ATOM                 0.215000000     0.000000000     0.000000000 total forces
:FGL005:   5.ATOM                 0.002000000     0.000000000     0.000000000 total forces
:FGL006:   6.ATOM                 0.003000000     0.000000000     0.000000000 total forces
:FGL007:   7.ATOM                 0.000000000     0.000000000     0.000000000 total forces
:FGL008:   8.ATOM                 0.000000000     0.000000000     0.000000000 total forces
:FGL009:   9.ATOM                -0.009000000     0.010000000     0.000000000 total forces
:FGL010:  10.ATOM                 0.069000000     0.010000000     0.000000000 total forces
:FGL011:  11.ATOM                -0.039000000     0.010000000     0.000000000 total forces
:FGL012:  12.ATOM                 0.009000000     0.010000000     0.000000000 total forces
:FGL013:  13.ATOM                -0.977000000     0.000000000     0.000000000 total forces
:FGL014:  14.ATOM                 0.056000000     0.000000000     0.000000000 total forces
:FGL015:  15.ATOM                -0.023000000     0.000000000     0.000000000 total forces
:FGL016:  16.ATOM                 0.027000000     0.000000000     0.000000000 total forces
:FGL017:  17.ATOM                -0.007000000     0.000000000     0.000000000 total forces
:FGL018:  18.ATOM                 0.007000000     0.000000000     0.000000000 total forces
:FGL019:  19.ATOM                -0.033000000    -0.000707107    -0.000707107 total forces
:FGL020:  20.ATOM                 0.021000000    -0.000707107    -0.000707107 total forces
:FGL021:  21.ATOM                 0.057000000     0.000000000     0.090000000 total forces
:FGL022:  22.ATOM                 0.058000000     0.000000000    -0.081000000 total forces
:FGL023:  23.ATOM                -0.001000000     0.000000000     0.014000000 total forces
:FGL024:  24.ATOM                 0.000000000     0.000000000    -0.001000000 total forces
:FSUM  : Sum of forces Fx,Fy,Fz            0.01300            0.00000            0.00000
