14.400
7.93119430 0 0 0 7.93119430 0 0 0 7.20023817
7.04188 0 0 0 7.04188 0 0 0 6.23070
-5.93192 0 0 0 -1.15699 0 0 0 -3.12063
