natom:  192
displacements:
- atom:    1
  displacement:
    [   0.0084570224972262,  0.0000000000000000,  0.0053365504290141 ]
- atom:    1
  displacement:
    [  -0.0084570224972262,  0.0000000000000000, -0.0053365504290141 ]
- atom:   65
  displacement:
    [   0.0064574127267021,  0.0064574127267021,  0.0040747566496726 ]
- atom:   65
  displacement:
    [  -0.0064574127267021, -0.0064574127267021, -0.0040747566496726 ]
lattice:
- [   15.305298209382633,   0.000000000000000,   0.000000000000000 ]
- [    0.000000000000000,  15.305298209382633,   0.000000000000000 ]
- [    0.000000000000000,   0.000000000000000,   9.657949444057730 ]
atoms:
- symbol: Ti # 1
  position: [   0.12500000000000,  0.18750000000000,  0.87500000000000 ]
- symbol: Ti # 2
  position: [   0.37500000000000,  0.18750000000000,  0.87500000000000 ]
- symbol: Ti # 3
  position: [   0.62500000000000,  0.18750000000000,  0.87500000000000 ]
- symbol: Ti # 4
  position: [   0.87500000000000,  0.18750000000000,  0.87500000000000 ]
- symbol: Ti # 5
  position: [   0.12500000000000,  0.43750000000000,  0.87500000000000 ]
- symbol: Ti # 6
  position: [   0.37500000000000,  0.43750000000000,  0.87500000000000 ]
- symbol: Ti # 7
  position: [   0.62500000000000,  0.43750000000000,  0.87500000000000 ]
- symbol: Ti # 8
  position: [   0.87500000000000,  0.43750000000000,  0.87500000000000 ]
- symbol: Ti # 9
  position: [   0.12500000000000,  0.68750000000000,  0.87500000000000 ]
- symbol: Ti # 10
  position: [   0.37500000000000,  0.68750000000000,  0.87500000000000 ]
- symbol: Ti # 11
  position: [   0.62500000000000,  0.68750000000000,  0.87500000000000 ]
- symbol: Ti # 12
  position: [   0.87500000000000,  0.68750000000000,  0.87500000000000 ]
- symbol: Ti # 13
  position: [   0.12500000000000,  0.93750000000000,  0.87500000000000 ]
- symbol: Ti # 14
  position: [   0.37500000000000,  0.93750000000000,  0.87500000000000 ]
- symbol: Ti # 15
  position: [   0.62500000000000,  0.93750000000000,  0.87500000000000 ]
- symbol: Ti # 16
  position: [   0.87500000000000,  0.93750000000000,  0.87500000000000 ]
- symbol: Ti # 17
  position: [   0.12500000000000,  0.06250000000000,  0.12500000000000 ]
- symbol: Ti # 18
  position: [   0.37500000000000,  0.06250000000000,  0.12500000000000 ]
- symbol: Ti # 19
  position: [   0.62500000000000,  0.06250000000000,  0.12500000000000 ]
- symbol: Ti # 20
  position: [   0.87500000000000,  0.06250000000000,  0.12500000000000 ]
- symbol: Ti # 21
  position: [   0.12500000000000,  0.31250000000000,  0.12500000000000 ]
- symbol: Ti # 22
  position: [   0.37500000000000,  0.31250000000000,  0.12500000000000 ]
- symbol: Ti # 23
  position: [   0.62500000000000,  0.31250000000000,  0.12500000000000 ]
- symbol: Ti # 24
  position: [   0.87500000000000,  0.31250000000000,  0.12500000000000 ]
- symbol: Ti # 25
  position: [   0.12500000000000,  0.56250000000000,  0.12500000000000 ]
- symbol: Ti # 26
  position: [   0.37500000000000,  0.56250000000000,  0.12500000000000 ]
- symbol: Ti # 27
  position: [   0.62500000000000,  0.56250000000000,  0.12500000000000 ]
- symbol: Ti # 28
  position: [   0.87500000000000,  0.56250000000000,  0.12500000000000 ]
- symbol: Ti # 29
  position: [   0.12500000000000,  0.81250000000000,  0.12500000000000 ]
- symbol: Ti # 30
  position: [   0.37500000000000,  0.81250000000000,  0.12500000000000 ]
- symbol: Ti # 31
  position: [   0.62500000000000,  0.81250000000000,  0.12500000000000 ]
- symbol: Ti # 32
  position: [   0.87500000000000,  0.81250000000000,  0.12500000000000 ]
- symbol: Ti # 33
  position: [   0.00000000000000,  0.06250000000000,  0.37500000000000 ]
- symbol: Ti # 34
  position: [   0.25000000000000,  0.06250000000000,  0.37500000000000 ]
- symbol: Ti # 35
  position: [   0.50000000000000,  0.06250000000000,  0.37500000000000 ]
- symbol: Ti # 36
  position: [   0.75000000000000,  0.06250000000000,  0.37500000000000 ]
- symbol: Ti # 37
  position: [   0.00000000000000,  0.31250000000000,  0.37500000000000 ]
- symbol: Ti # 38
  position: [   0.25000000000000,  0.31250000000000,  0.37500000000000 ]
- symbol: Ti # 39
  position: [   0.50000000000000,  0.31250000000000,  0.37500000000000 ]
- symbol: Ti # 40
  position: [   0.75000000000000,  0.31250000000000,  0.37500000000000 ]
- symbol: Ti # 41
  position: [   0.00000000000000,  0.56250000000000,  0.37500000000000 ]
- symbol: Ti # 42
  position: [   0.25000000000000,  0.56250000000000,  0.37500000000000 ]
- symbol: Ti # 43
  position: [   0.50000000000000,  0.56250000000000,  0.37500000000000 ]
- symbol: Ti # 44
  position: [   0.75000000000000,  0.56250000000000,  0.37500000000000 ]
- symbol: Ti # 45
  position: [   0.00000000000000,  0.81250000000000,  0.37500000000000 ]
- symbol: Ti # 46
  position: [   0.25000000000000,  0.81250000000000,  0.37500000000000 ]
- symbol: Ti # 47
  position: [   0.50000000000000,  0.81250000000000,  0.37500000000000 ]
- symbol: Ti # 48
  position: [   0.75000000000000,  0.81250000000000,  0.37500000000000 ]
- symbol: Ti # 49
  position: [   0.00000000000000,  0.18750000000000,  0.62500000000000 ]
- symbol: Ti # 50
  position: [   0.25000000000000,  0.18750000000000,  0.62500000000000 ]
- symbol: Ti # 51
  position: [   0.50000000000000,  0.18750000000000,  0.62500000000000 ]
- symbol: Ti # 52
  position: [   0.75000000000000,  0.18750000000000,  0.62500000000000 ]
- symbol: Ti # 53
  position: [   0.00000000000000,  0.43750000000000,  0.62500000000000 ]
- symbol: Ti # 54
  position: [   0.25000000000000,  0.43750000000000,  0.62500000000000 ]
- symbol: Ti # 55
  position: [   0.50000000000000,  0.43750000000000,  0.62500000000000 ]
- symbol: Ti # 56
  position: [   0.75000000000000,  0.43750000000000,  0.62500000000000 ]
- symbol: Ti # 57
  position: [   0.00000000000000,  0.68750000000000,  0.62500000000000 ]
- symbol: Ti # 58
  position: [   0.25000000000000,  0.68750000000000,  0.62500000000000 ]
- symbol: Ti # 59
  position: [   0.50000000000000,  0.68750000000000,  0.62500000000000 ]
- symbol: Ti # 60
  position: [   0.75000000000000,  0.68750000000000,  0.62500000000000 ]
- symbol: Ti # 61
  position: [   0.00000000000000,  0.93750000000000,  0.62500000000000 ]
- symbol: Ti # 62
  position: [   0.25000000000000,  0.93750000000000,  0.62500000000000 ]
- symbol: Ti # 63
  position: [   0.50000000000000,  0.93750000000000,  0.62500000000000 ]
- symbol: Ti # 64
  position: [   0.75000000000000,  0.93750000000000,  0.62500000000000 ]
- symbol: O  # 65
  position: [   0.00000000000000,  0.06250000000000,  0.16760628530915 ]
- symbol: O  # 66
  position: [   0.25000000000000,  0.06250000000000,  0.16760628530915 ]
- symbol: O  # 67
  position: [   0.50000000000000,  0.06250000000000,  0.16760628530915 ]
- symbol: O  # 68
  position: [   0.75000000000000,  0.06250000000000,  0.16760628530915 ]
- symbol: O  # 69
  position: [   0.00000000000000,  0.31250000000000,  0.16760628530915 ]
- symbol: O  # 70
  position: [   0.25000000000000,  0.31250000000000,  0.16760628530915 ]
- symbol: O  # 71
  position: [   0.50000000000000,  0.31250000000000,  0.16760628530915 ]
- symbol: O  # 72
  position: [   0.75000000000000,  0.31250000000000,  0.16760628530915 ]
- symbol: O  # 73
  position: [   0.00000000000000,  0.56250000000000,  0.16760628530915 ]
- symbol: O  # 74
  position: [   0.25000000000000,  0.56250000000000,  0.16760628530915 ]
- symbol: O  # 75
  position: [   0.50000000000000,  0.56250000000000,  0.16760628530915 ]
- symbol: O  # 76
  position: [   0.75000000000000,  0.56250000000000,  0.16760628530915 ]
- symbol: O  # 77
  position: [   0.00000000000000,  0.81250000000000,  0.16760628530915 ]
- symbol: O  # 78
  position: [   0.25000000000000,  0.81250000000000,  0.16760628530915 ]
- symbol: O  # 79
  position: [   0.50000000000000,  0.81250000000000,  0.16760628530915 ]
- symbol: O  # 80
  position: [   0.75000000000000,  0.81250000000000,  0.16760628530915 ]
- symbol: O  # 81
  position: [   0.00000000000000,  0.18750000000000,  0.83239371469086 ]
- symbol: O  # 82
  position: [   0.25000000000000,  0.18750000000000,  0.83239371469086 ]
- symbol: O  # 83
  position: [   0.50000000000000,  0.18750000000000,  0.83239371469086 ]
- symbol: O  # 84
  position: [   0.75000000000000,  0.18750000000000,  0.83239371469086 ]
- symbol: O  # 85
  position: [   0.00000000000000,  0.43750000000000,  0.83239371469086 ]
- symbol: O  # 86
  position: [   0.25000000000000,  0.43750000000000,  0.83239371469086 ]
- symbol: O  # 87
  position: [   0.50000000000000,  0.43750000000000,  0.83239371469086 ]
- symbol: O  # 88
  position: [   0.75000000000000,  0.43750000000000,  0.83239371469086 ]
- symbol: O  # 89
  position: [   0.00000000000000,  0.68750000000000,  0.83239371469086 ]
- symbol: O  # 90
  position: [   0.25000000000000,  0.68750000000000,  0.83239371469086 ]
- symbol: O  # 91
  position: [   0.50000000000000,  0.68750000000000,  0.83239371469086 ]
- symbol: O  # 92
  position: [   0.75000000000000,  0.68750000000000,  0.83239371469086 ]
- symbol: O  # 93
  position: [   0.00000000000000,  0.93750000000000,  0.83239371469086 ]
- symbol: O  # 94
  position: [   0.25000000000000,  0.93750000000000,  0.83239371469086 ]
- symbol: O  # 95
  position: [   0.50000000000000,  0.93750000000000,  0.83239371469086 ]
- symbol: O  # 96
  position: [   0.75000000000000,  0.93750000000000,  0.83239371469086 ]
- symbol: O  # 97
  position: [   0.12500000000000,  0.06250000000000,  0.91760628530914 ]
- symbol: O  # 98
  position: [   0.37500000000000,  0.06250000000000,  0.91760628530914 ]
- symbol: O  # 99
  position: [   0.62500000000000,  0.06250000000000,  0.91760628530914 ]
- symbol: O  # 100
  position: [   0.87500000000000,  0.06250000000000,  0.91760628530914 ]
- symbol: O  # 101
  position: [   0.12500000000000,  0.31250000000000,  0.91760628530914 ]
- symbol: O  # 102
  position: [   0.37500000000000,  0.31250000000000,  0.91760628530914 ]
- symbol: O  # 103
  position: [   0.62500000000000,  0.31250000000000,  0.91760628530914 ]
- symbol: O  # 104
  position: [   0.87500000000000,  0.31250000000000,  0.91760628530914 ]
- symbol: O  # 105
  position: [   0.12500000000000,  0.56250000000000,  0.91760628530914 ]
- symbol: O  # 106
  position: [   0.37500000000000,  0.56250000000000,  0.91760628530914 ]
- symbol: O  # 107
  position: [   0.62500000000000,  0.56250000000000,  0.91760628530914 ]
- symbol: O  # 108
  position: [   0.87500000000000,  0.56250000000000,  0.91760628530914 ]
- symbol: O  # 109
  position: [   0.12500000000000,  0.81250000000000,  0.91760628530914 ]
- symbol: O  # 110
  position: [   0.37500000000000,  0.81250000000000,  0.91760628530914 ]
- symbol: O  # 111
  position: [   0.62500000000000,  0.81250000000000,  0.91760628530914 ]
- symbol: O  # 112
  position: [   0.87500000000000,  0.81250000000000,  0.91760628530914 ]
- symbol: O  # 113
  position: [   0.12500000000000,  0.18750000000000,  0.08239371469085 ]
- symbol: O  # 114
  position: [   0.37500000000000,  0.18750000000000,  0.08239371469085 ]
- symbol: O  # 115
  position: [   0.62500000000000,  0.18750000000000,  0.08239371469085 ]
- symbol: O  # 116
  position: [   0.87500000000000,  0.18750000000000,  0.08239371469085 ]
- symbol: O  # 117
  position: [   0.12500000000000,  0.43750000000000,  0.08239371469085 ]
- symbol: O  # 118
  position: [   0.37500000000000,  0.43750000000000,  0.08239371469085 ]
- symbol: O  # 119
  position: [   0.62500000000000,  0.43750000000000,  0.08239371469085 ]
- symbol: O  # 120
  position: [   0.87500000000000,  0.43750000000000,  0.08239371469085 ]
- symbol: O  # 121
  position: [   0.12500000000000,  0.68750000000000,  0.08239371469085 ]
- symbol: O  # 122
  position: [   0.37500000000000,  0.68750000000000,  0.08239371469085 ]
- symbol: O  # 123
  position: [   0.62500000000000,  0.68750000000000,  0.08239371469085 ]
- symbol: O  # 124
  position: [   0.87500000000000,  0.68750000000000,  0.08239371469085 ]
- symbol: O  # 125
  position: [   0.12500000000000,  0.93750000000000,  0.08239371469085 ]
- symbol: O  # 126
  position: [   0.37500000000000,  0.93750000000000,  0.08239371469085 ]
- symbol: O  # 127
  position: [   0.62500000000000,  0.93750000000000,  0.08239371469085 ]
- symbol: O  # 128
  position: [   0.87500000000000,  0.93750000000000,  0.08239371469085 ]
- symbol: O  # 129
  position: [   0.12500000000000,  0.18750000000000,  0.66760628530914 ]
- symbol: O  # 130
  position: [   0.37500000000000,  0.18750000000000,  0.66760628530914 ]
- symbol: O  # 131
  position: [   0.62500000000000,  0.18750000000000,  0.66760628530914 ]
- symbol: O  # 132
  position: [   0.87500000000000,  0.18750000000000,  0.66760628530914 ]
- symbol: O  # 133
  position: [   0.12500000000000,  0.43750000000000,  0.66760628530914 ]
- symbol: O  # 134
  position: [   0.37500000000000,  0.43750000000000,  0.66760628530914 ]
- symbol: O  # 135
  position: [   0.62500000000000,  0.43750000000000,  0.66760628530914 ]
- symbol: O  # 136
  position: [   0.87500000000000,  0.43750000000000,  0.66760628530914 ]
- symbol: O  # 137
  position: [   0.12500000000000,  0.68750000000000,  0.66760628530914 ]
- symbol: O  # 138
  position: [   0.37500000000000,  0.68750000000000,  0.66760628530914 ]
- symbol: O  # 139
  position: [   0.62500000000000,  0.68750000000000,  0.66760628530914 ]
- symbol: O  # 140
  position: [   0.87500000000000,  0.68750000000000,  0.66760628530914 ]
- symbol: O  # 141
  position: [   0.12500000000000,  0.93750000000000,  0.66760628530914 ]
- symbol: O  # 142
  position: [   0.37500000000000,  0.93750000000000,  0.66760628530914 ]
- symbol: O  # 143
  position: [   0.62500000000000,  0.93750000000000,  0.66760628530914 ]
- symbol: O  # 144
  position: [   0.87500000000000,  0.93750000000000,  0.66760628530914 ]
- symbol: O  # 145
  position: [   0.12500000000000,  0.06250000000000,  0.33239371469085 ]
- symbol: O  # 146
  position: [   0.37500000000000,  0.06250000000000,  0.33239371469085 ]
- symbol: O  # 147
  position: [   0.62500000000000,  0.06250000000000,  0.33239371469085 ]
- symbol: O  # 148
  position: [   0.87500000000000,  0.06250000000000,  0.33239371469085 ]
- symbol: O  # 149
  position: [   0.12500000000000,  0.31250000000000,  0.33239371469085 ]
- symbol: O  # 150
  position: [   0.37500000000000,  0.31250000000000,  0.33239371469085 ]
- symbol: O  # 151
  position: [   0.62500000000000,  0.31250000000000,  0.33239371469085 ]
- symbol: O  # 152
  position: [   0.87500000000000,  0.31250000000000,  0.33239371469085 ]
- symbol: O  # 153
  position: [   0.12500000000000,  0.56250000000000,  0.33239371469085 ]
- symbol: O  # 154
  position: [   0.37500000000000,  0.56250000000000,  0.33239371469085 ]
- symbol: O  # 155
  position: [   0.62500000000000,  0.56250000000000,  0.33239371469085 ]
- symbol: O  # 156
  position: [   0.87500000000000,  0.56250000000000,  0.33239371469085 ]
- symbol: O  # 157
  position: [   0.12500000000000,  0.81250000000000,  0.33239371469085 ]
- symbol: O  # 158
  position: [   0.37500000000000,  0.81250000000000,  0.33239371469085 ]
- symbol: O  # 159
  position: [   0.62500000000000,  0.81250000000000,  0.33239371469085 ]
- symbol: O  # 160
  position: [   0.87500000000000,  0.81250000000000,  0.33239371469085 ]
- symbol: O  # 161
  position: [   0.00000000000000,  0.18750000000000,  0.41760628530915 ]
- symbol: O  # 162
  position: [   0.25000000000000,  0.18750000000000,  0.41760628530915 ]
- symbol: O  # 163
  position: [   0.50000000000000,  0.18750000000000,  0.41760628530915 ]
- symbol: O  # 164
  position: [   0.75000000000000,  0.18750000000000,  0.41760628530915 ]
- symbol: O  # 165
  position: [   0.00000000000000,  0.43750000000000,  0.41760628530915 ]
- symbol: O  # 166
  position: [   0.25000000000000,  0.43750000000000,  0.41760628530915 ]
- symbol: O  # 167
  position: [   0.50000000000000,  0.43750000000000,  0.41760628530915 ]
- symbol: O  # 168
  position: [   0.75000000000000,  0.43750000000000,  0.41760628530915 ]
- symbol: O  # 169
  position: [   0.00000000000000,  0.68750000000000,  0.41760628530915 ]
- symbol: O  # 170
  position: [   0.25000000000000,  0.68750000000000,  0.41760628530915 ]
- symbol: O  # 171
  position: [   0.50000000000000,  0.68750000000000,  0.41760628530915 ]
- symbol: O  # 172
  position: [   0.75000000000000,  0.68750000000000,  0.41760628530915 ]
- symbol: O  # 173
  position: [   0.00000000000000,  0.93750000000000,  0.41760628530915 ]
- symbol: O  # 174
  position: [   0.25000000000000,  0.93750000000000,  0.41760628530915 ]
- symbol: O  # 175
  position: [   0.50000000000000,  0.93750000000000,  0.41760628530915 ]
- symbol: O  # 176
  position: [   0.75000000000000,  0.93750000000000,  0.41760628530915 ]
- symbol: O  # 177
  position: [   0.00000000000000,  0.06250000000000,  0.58239371469086 ]
- symbol: O  # 178
  position: [   0.25000000000000,  0.06250000000000,  0.58239371469086 ]
- symbol: O  # 179
  position: [   0.50000000000000,  0.06250000000000,  0.58239371469086 ]
- symbol: O  # 180
  position: [   0.75000000000000,  0.06250000000000,  0.58239371469086 ]
- symbol: O  # 181
  position: [   0.00000000000000,  0.31250000000000,  0.58239371469086 ]
- symbol: O  # 182
  position: [   0.25000000000000,  0.31250000000000,  0.58239371469086 ]
- symbol: O  # 183
  position: [   0.50000000000000,  0.31250000000000,  0.58239371469086 ]
- symbol: O  # 184
  position: [   0.75000000000000,  0.31250000000000,  0.58239371469086 ]
- symbol: O  # 185
  position: [   0.00000000000000,  0.56250000000000,  0.58239371469086 ]
- symbol: O  # 186
  position: [   0.25000000000000,  0.56250000000000,  0.58239371469086 ]
- symbol: O  # 187
  position: [   0.50000000000000,  0.56250000000000,  0.58239371469086 ]
- symbol: O  # 188
  position: [   0.75000000000000,  0.56250000000000,  0.58239371469086 ]
- symbol: O  # 189
  position: [   0.00000000000000,  0.81250000000000,  0.58239371469086 ]
- symbol: O  # 190
  position: [   0.25000000000000,  0.81250000000000,  0.58239371469086 ]
- symbol: O  # 191
  position: [   0.50000000000000,  0.81250000000000,  0.58239371469086 ]
- symbol: O  # 192
  position: [   0.75000000000000,  0.81250000000000,  0.58239371469086 ]
