192
4

1
  0.0084570224972262   0.0000000000000000   0.0053365504290141
  -0.1489324400    0.0000000000   -0.1034583700
   0.0481698100    0.0000000000    0.0054564200
   0.0147227200    0.0000000000   -0.0013642900
   0.0592202500    0.0000000000   -0.0125941800
  -0.0054060000    0.0056325000   -0.0035939200
   0.0018652200    0.0066708600   -0.0022963500
   0.0041461500   -0.0004719500   -0.0001816400
  -0.0003041300   -0.0088348300    0.0011870900
  -0.0018518200    0.0000000000   -0.0013667700
   0.0005369100    0.0000000000   -0.0009319300
   0.0017505800    0.0000000000   -0.0000029900
  -0.0003995000    0.0000000000    0.0005719100
  -0.0054060000   -0.0056325000   -0.0035939200
   0.0018652200   -0.0066708600   -0.0022963500
   0.0041461500    0.0004719500   -0.0001816400
  -0.0003041300    0.0088348300    0.0011870900
  -0.0111142800   -0.0321564400    0.0131443500
   0.0058898900   -0.0053360300    0.0053230200
   0.0052911300    0.0002862100   -0.0003223600
  -0.0021960400    0.0053921600   -0.0074976800
  -0.0111142800    0.0321564400    0.0131443500
   0.0058898900    0.0053360300    0.0053230200
   0.0052911300   -0.0002862100   -0.0003223600
  -0.0021960400   -0.0053921600   -0.0074976800
  -0.0023349800    0.0024526400    0.0014455100
   0.0007697800    0.0018791900    0.0011363200
   0.0019727500   -0.0001406300   -0.0001094000
  -0.0006412300   -0.0016515100   -0.0011090100
  -0.0023349800   -0.0024526400    0.0014455100
   0.0007697800   -0.0018791900    0.0011363200
   0.0019727500    0.0001406300   -0.0001094000
  -0.0006412300    0.0016515100   -0.0011090100
  -0.0054449500    0.0058771000    0.0106460000
  -0.0017625800   -0.0022210000    0.0048257700
   0.0039828200   -0.0007492400    0.0004455900
   0.0035296200    0.0016525400    0.0011608600
  -0.0054449500   -0.0058771000    0.0106460000
  -0.0017625800    0.0022210000    0.0048257700
   0.0039828200    0.0007492400    0.0004455900
   0.0035296200   -0.0016525400    0.0011608600
  -0.0018419000   -0.0014251900    0.0015234000
  -0.0009307300    0.0009790800    0.0000789000
   0.0016000400    0.0004640500   -0.0000441800
   0.0011974800   -0.0008631900    0.0005923700
  -0.0018419000    0.0014251900    0.0015234000
  -0.0009307300   -0.0009790800    0.0000789000
   0.0016000400   -0.0004640500   -0.0000441800
   0.0011974800    0.0008631900    0.0005923700
   0.0199361000    0.0000000000    0.0636238600
  -0.0441020300    0.0000000000   -0.0377427800
   0.0088545600    0.0000000000   -0.0024253700
   0.0137225600    0.0000000000    0.0053618200
  -0.0026642100   -0.0093773100   -0.0011680300
  -0.0025803500    0.0013233200   -0.0010208800
   0.0027041900    0.0010585300   -0.0001614900
   0.0029315200   -0.0024678600    0.0001903400
  -0.0014752700    0.0000000000   -0.0007686000
  -0.0009114100    0.0000000000    0.0001347400
   0.0013786000    0.0000000000    0.0001132800
   0.0010979400    0.0000000000   -0.0003369800
  -0.0026642100    0.0093773100   -0.0011680300
  -0.0025803500   -0.0013233200   -0.0010208800
   0.0027041900   -0.0010585300   -0.0001614900
   0.0029315200    0.0024678600    0.0001903400
   0.0103654900    0.0010600600   -0.0037925200
  -0.0020661200    0.0024665400   -0.0039317100
  -0.0048490900    0.0003948000   -0.0010692300
  -0.0033834200   -0.0004733600   -0.0001735200
   0.0103654900   -0.0010600600   -0.0037925200
  -0.0020661200   -0.0024665400   -0.0039317100
  -0.0048490900   -0.0003948000   -0.0010692300
  -0.0033834200    0.0004733600   -0.0001735200
   0.0022848400    0.0000100500   -0.0008709900
   0.0005847500   -0.0003406400   -0.0005540600
  -0.0016784800   -0.0001378300   -0.0003993600
  -0.0011107600    0.0001487000   -0.0004328700
   0.0022848400   -0.0000100500   -0.0008709900
   0.0005847500    0.0003406400   -0.0005540600
  -0.0016784800    0.0001378300   -0.0003993600
  -0.0011107600   -0.0001487000   -0.0004328700
   0.0316549000    0.0000000000    0.0003243300
   0.0231774300    0.0000000000    0.0178531400
  -0.0143239000    0.0000000000    0.0028055300
  -0.0177258900    0.0000000000   -0.0020377600
   0.0051041500    0.0005736800    0.0019584400
   0.0011151000   -0.0011691100    0.0013000700
  -0.0033212700   -0.0004712100    0.0007353200
  -0.0029828300    0.0006965800    0.0001880900
   0.0017829200    0.0000000000    0.0007331900
   0.0006713200    0.0000000000    0.0004392100
  -0.0014383100    0.0000000000    0.0003571200
  -0.0010230500    0.0000000000    0.0004180200
   0.0051041500   -0.0005736800    0.0019584400
   0.0011151000    0.0011691100    0.0013000700
  -0.0033212700    0.0004712100    0.0007353200
  -0.0029828300   -0.0006965800    0.0001880900
   0.0083851200   -0.0061973400    0.0086842400
  -0.0031824200    0.0087579200   -0.0026601100
  -0.0013539300   -0.0005598700   -0.0000084300
  -0.0037435900   -0.0127689100    0.0047155400
   0.0083851200    0.0061973400    0.0086842400
  -0.0031824200   -0.0087579200   -0.0026601100
  -0.0013539300    0.0005598700   -0.0000084300
  -0.0037435900    0.0127689100    0.0047155400
   0.0005894300   -0.0016672300   -0.0001908200
  -0.0001798600   -0.0017531000   -0.0005445900
  -0.0004669800    0.0002072500   -0.0002083900
   0.0000479200    0.0020961700    0.0002712400
   0.0005894300    0.0016672300   -0.0001908200
  -0.0001798600    0.0017531000   -0.0005445900
  -0.0004669800   -0.0002072500   -0.0002083900
   0.0000479200   -0.0020961700    0.0002712400
   0.0094579500    0.0000000000    0.0191187100
  -0.0028405400    0.0000000000   -0.0045558900
  -0.0011648900    0.0000000000    0.0007704600
  -0.0016282300    0.0000000000    0.0083951800
   0.0008156100   -0.0054288800    0.0021077100
  -0.0003752800   -0.0032927700    0.0000391000
  -0.0005864500    0.0001914300    0.0004205700
   0.0003338100    0.0029540100    0.0014734500
   0.0005557800    0.0000000000    0.0007378600
  -0.0001048200    0.0000000000    0.0003755800
  -0.0003041300    0.0000000000    0.0003359100
   0.0001245000    0.0000000000    0.0004188700
   0.0008156100    0.0054288800    0.0021077100
  -0.0003752800    0.0032927700    0.0000391000
  -0.0005864500   -0.0001914300    0.0004205700
   0.0003338100   -0.0029540100    0.0014734500
   0.0339551700    0.0000000000    0.0175164000
  -0.0049445000    0.0000000000    0.0101312500
  -0.0090360600    0.0000000000    0.0001201400
  -0.0156930200    0.0000000000   -0.0071055200
   0.0041566800    0.0005872700    0.0013177100
  -0.0005189400   -0.0003345900    0.0008865700
  -0.0029236200    0.0001133200   -0.0002031500
  -0.0008534600    0.0010392100   -0.0005800500
   0.0017119400    0.0000000000    0.0001644800
  -0.0003469500    0.0000000000    0.0000739000
  -0.0014560400    0.0000000000   -0.0002625800
   0.0000417000    0.0000000000   -0.0004304800
   0.0041566800   -0.0005872700    0.0013177100
  -0.0005189400    0.0003345900    0.0008865700
  -0.0029236200   -0.0001133200   -0.0002031500
  -0.0008534600   -0.0010392100   -0.0005800500
   0.0056340700    0.0005508600   -0.0049876100
  -0.0017041000    0.0002668500   -0.0018120900
  -0.0037015400   -0.0000824900    0.0001372600
  -0.0005634200   -0.0007592300    0.0005843600
   0.0056340700   -0.0005508600   -0.0049876100
  -0.0017041000   -0.0002668500   -0.0018120900
  -0.0037015400    0.0000824900    0.0001372600
  -0.0005634200    0.0007592300    0.0005843600
   0.0019836300   -0.0000225500   -0.0004323200
  -0.0004748700   -0.0001492100   -0.0001555200
  -0.0016191700    0.0000343300    0.0002585000
   0.0001039200    0.0002187500    0.0004343900
   0.0019836300    0.0000225500   -0.0004323200
  -0.0004748700    0.0001492100   -0.0001555200
  -0.0016191700   -0.0000343300    0.0002585000
   0.0001039200   -0.0002187500    0.0004343900
   0.0005469100    0.0000000000   -0.0142312600
   0.0016138400    0.0000000000    0.0030800600
  -0.0008503200    0.0000000000    0.0001329100
  -0.0008938800    0.0000000000   -0.0021927000
   0.0006608100    0.0028728100   -0.0016432000
   0.0001641200   -0.0017465400   -0.0007871100
  -0.0004512000   -0.0007217700   -0.0003309600
  -0.0003799000    0.0012954500   -0.0005885100
   0.0003015500    0.0000000000   -0.0005016800
   0.0001364400    0.0000000000   -0.0004232100
  -0.0002552500    0.0000000000   -0.0003564600
  -0.0001851300    0.0000000000   -0.0003296800
   0.0006608100   -0.0028728100   -0.0016432000
   0.0001641200    0.0017465400   -0.0007871100
  -0.0004512000    0.0007217700   -0.0003309600
  -0.0003799000   -0.0012954500   -0.0005885100
  -0.0006598500   -0.0133939200   -0.0068204800
   0.0028609300    0.0009421600    0.0003059400
  -0.0009695600    0.0011484700    0.0005015200
  -0.0012955300   -0.0028485600   -0.0007309900
  -0.0006598500    0.0133939200   -0.0068204800
   0.0028609300   -0.0009421600    0.0003059400
  -0.0009695600   -0.0011484700    0.0005015200
  -0.0012955300    0.0028485600   -0.0007309900
   0.0003312900    0.0021361900   -0.0003736900
   0.0002508800   -0.0006781600    0.0003316700
  -0.0003333100   -0.0003968200    0.0003394200
  -0.0003203000    0.0009595200    0.0000241500
   0.0003312900   -0.0021361900   -0.0003736900
   0.0002508800    0.0006781600    0.0003316700
  -0.0003333100    0.0003968200    0.0003394200
  -0.0003203000   -0.0009595200    0.0000241500

1
 -0.0084570224972262   0.0000000000000000  -0.0053365504290141
   0.1518317400    0.0000000000    0.1057549200
  -0.0480742600    0.0000000000   -0.0054780500
  -0.0147940500    0.0000000000    0.0013817900
  -0.0599325100    0.0000000000    0.0127831700
   0.0054203900   -0.0058243500    0.0036215900
  -0.0019031500   -0.0066747800    0.0022959200
  -0.0041686900    0.0004795100    0.0001785600
   0.0003284200    0.0089070000   -0.0011982700
   0.0018644600    0.0000000000    0.0013752200
  -0.0005544000    0.0000000000    0.0009386300
  -0.0017565800    0.0000000000    0.0000030400
   0.0004121900    0.0000000000   -0.0005732100
   0.0054203900    0.0058243500    0.0036215900
  -0.0019031500    0.0066747800    0.0022959200
  -0.0041686900   -0.0004795100    0.0001785600
   0.0003284200   -0.0089070000   -0.0011982700
   0.0110671500    0.0321808100   -0.0133440500
  -0.0059056200    0.0053232300   -0.0053114100
  -0.0053252600   -0.0002885800    0.0003234600
   0.0022178000   -0.0054473200    0.0075575900
   0.0110671500   -0.0321808100   -0.0133440500
  -0.0059056200   -0.0053232300   -0.0053114100
  -0.0053252600    0.0002885800    0.0003234600
   0.0022178000    0.0054473200    0.0075575900
   0.0023485100   -0.0024669900   -0.0014903000
  -0.0007811500   -0.0018842400   -0.0011424500
  -0.0019855700    0.0001443300    0.0001130000
   0.0006486400    0.0016665200    0.0011106900
   0.0023485100    0.0024669900   -0.0014903000
  -0.0007811500    0.0018842400   -0.0011424500
  -0.0019855700   -0.0001443300    0.0001130000
   0.0006486400   -0.0016665200    0.0011106900
   0.0054907500   -0.0059634500   -0.0107502800
   0.0017753000    0.0022190500   -0.0048418000
  -0.0040045400    0.0007498400   -0.0004457300
  -0.0035578200   -0.0016698800   -0.0011674100
   0.0054907500    0.0059634500   -0.0107502800
   0.0017753000   -0.0022190500   -0.0048418000
  -0.0040045400   -0.0007498400   -0.0004457300
  -0.0035578200    0.0016698800   -0.0011674100
   0.0018568100    0.0014399000   -0.0015341200
   0.0009347000   -0.0009801200   -0.0000785900
  -0.0016116000   -0.0004581500    0.0000428800
  -0.0012041800    0.0008704500   -0.0005972900
   0.0018568100   -0.0014399000   -0.0015341200
   0.0009347000    0.0009801200   -0.0000785900
  -0.0016116000    0.0004581500    0.0000428800
  -0.0012041800   -0.0008704500   -0.0005972900
  -0.0203875800    0.0000000000   -0.0648257300
   0.0442501800    0.0000000000    0.0377297400
  -0.0088971100    0.0000000000    0.0024360600
  -0.0138646700    0.0000000000   -0.0053801300
   0.0026932100    0.0094822500    0.0011958500
   0.0025865000   -0.0013227000    0.0010436700
  -0.0027241200   -0.0010611200    0.0001626900
  -0.0029487100    0.0024929700   -0.0001897100
   0.0014972300    0.0000000000    0.0007848000
   0.0009082100    0.0000000000   -0.0001314500
  -0.0013920600    0.0000000000   -0.0001186300
  -0.0011018500    0.0000000000    0.0003393200
   0.0026932100   -0.0094822500    0.0011958500
   0.0025865000    0.0013227000    0.0010436700
  -0.0027241200    0.0010611200    0.0001626900
  -0.0029487100   -0.0024929700   -0.0001897100
  -0.0104629600   -0.0010601500    0.0032421000
   0.0021305700   -0.0024719900    0.0033544300
   0.0048717700   -0.0003937600    0.0004650900
   0.0034029900    0.0004788000   -0.0004229400
  -0.0104629600    0.0010601500    0.0032421000
   0.0021305700    0.0024719900    0.0033544300
   0.0048717700    0.0003937600    0.0004650900
   0.0034029900   -0.0004788000   -0.0004229400
  -0.0023066700   -0.0000113500    0.0002818900
  -0.0005793000    0.0003412100   -0.0000423300
   0.0016896800    0.0001367100   -0.0001973900
   0.0011174500   -0.0001510400   -0.0001631200
  -0.0023066700    0.0000113500    0.0002818900
  -0.0005793000   -0.0003412100   -0.0000423300
   0.0016896800   -0.0001367100   -0.0001973900
   0.0011174500    0.0001510400   -0.0001631200
  -0.0366857700    0.0000000000   -0.0002723800
  -0.0199279500    0.0000000000   -0.0178718300
   0.0143935800    0.0000000000   -0.0022398900
   0.0177926900    0.0000000000    0.0026154100
  -0.0051783800   -0.0005737300   -0.0013893500
  -0.0010657600    0.0011843600   -0.0007183700
   0.0033437400    0.0004698700   -0.0001322300
   0.0029915200   -0.0007042900    0.0004114500
  -0.0018000300    0.0000000000   -0.0001349200
  -0.0006647600    0.0000000000    0.0001567700
   0.0014441700    0.0000000000    0.0002366600
   0.0010280300    0.0000000000    0.0001751600
  -0.0051783800    0.0005737300   -0.0013893500
  -0.0010657600   -0.0011843600   -0.0007183700
   0.0033437400   -0.0004698700   -0.0001322300
   0.0029915200    0.0007042900    0.0004114500
  -0.0085803100    0.0063888500   -0.0094843600
   0.0031640300   -0.0087694600    0.0020558800
   0.0013607200    0.0005582800   -0.0005845400
   0.0038093500    0.0128573500   -0.0053699100
  -0.0085803100   -0.0063888500   -0.0094843600
   0.0031640300    0.0087694600    0.0020558800
   0.0013607200   -0.0005582800   -0.0005845400
   0.0038093500   -0.0128573500   -0.0053699100
  -0.0005978900    0.0017345000   -0.0003810300
   0.0001823400    0.0017609600   -0.0000525500
   0.0004712800   -0.0002135000   -0.0003884700
  -0.0000508600   -0.0021063600   -0.0008680900
  -0.0005978900   -0.0017345000   -0.0003810300
   0.0001823400   -0.0017609600   -0.0000525500
   0.0004712800    0.0002135000   -0.0003884700
  -0.0000508600    0.0021063600   -0.0008680900
  -0.0094794400    0.0000000000   -0.0173263900
   0.0028212000    0.0000000000    0.0051772500
   0.0011693100    0.0000000000   -0.0001673300
   0.0016674300    0.0000000000   -0.0078522500
  -0.0008042700    0.0054355700   -0.0015065600
   0.0003791000    0.0032944600    0.0005659700
   0.0005885500   -0.0001988500    0.0001751600
  -0.0003368600   -0.0029780700   -0.0008781600
  -0.0005523800    0.0000000000   -0.0001285000
   0.0001054400    0.0000000000    0.0002235000
   0.0003059000    0.0000000000    0.0002642200
  -0.0001262100    0.0000000000    0.0001826900
  -0.0008042700   -0.0054355700   -0.0015065600
   0.0003791000   -0.0032944600    0.0005659700
   0.0005885500    0.0001988500    0.0001751600
  -0.0003368600    0.0029780700   -0.0008781600
  -0.0340007900    0.0000000000   -0.0189201200
   0.0049752100    0.0000000000   -0.0107753600
   0.0090985000    0.0000000000   -0.0007452000
   0.0159493300    0.0000000000    0.0065703000
  -0.0041894300   -0.0005960900   -0.0019466000
   0.0005299800    0.0003322000   -0.0014927000
   0.0029448400   -0.0001170300   -0.0003979100
   0.0008539100   -0.0010527000   -0.0000271300
  -0.0017208900    0.0000000000   -0.0007749300
   0.0003527700    0.0000000000   -0.0006725000
   0.0014658700    0.0000000000   -0.0003385700
  -0.0000481100    0.0000000000   -0.0001695200
  -0.0041894300    0.0005960900   -0.0019466000
   0.0005299800   -0.0003322000   -0.0014927000
   0.0029448400    0.0001170300   -0.0003979100
   0.0008539100    0.0010527000   -0.0000271300
  -0.0056806500   -0.0005390600    0.0056436600
   0.0017150600   -0.0002649300    0.0024204000
   0.0037252900    0.0000842800    0.0004647300
   0.0005675100    0.0007690100    0.0000170800
  -0.0056806500    0.0005390600    0.0056436600
   0.0017150600    0.0002649300    0.0024204000
   0.0037252900   -0.0000842800    0.0004647300
   0.0005675100   -0.0007690100    0.0000170800
  -0.0019984200    0.0000216200    0.0010383700
   0.0004830500    0.0001484200    0.0007557200
   0.0016265500   -0.0000353900    0.0003403400
  -0.0001056100   -0.0002212500    0.0001589700
  -0.0019984200   -0.0000216200    0.0010383700
   0.0004830500   -0.0001484200    0.0007557200
   0.0016265500    0.0000353900    0.0003403400
  -0.0001056100    0.0002212500    0.0001589700
  -0.0005172400    0.0000000000    0.0137945700
  -0.0016289200    0.0000000000   -0.0036799100
   0.0008566000    0.0000000000   -0.0007339200
   0.0009000400    0.0000000000    0.0016057700
  -0.0006654000   -0.0029055000    0.0010526200
  -0.0001653800    0.0017467500    0.0001872600
   0.0004549800    0.0007197600   -0.0002712100
   0.0003825700   -0.0013131900   -0.0000090000
  -0.0003054200    0.0000000000   -0.0000959200
  -0.0001353300    0.0000000000   -0.0001794000
   0.0002564100    0.0000000000   -0.0002493800
   0.0001870900    0.0000000000   -0.0002650900
  -0.0006654000    0.0029055000    0.0010526200
  -0.0001653800   -0.0017467500    0.0001872600
   0.0004549800   -0.0007197600   -0.0002712100
   0.0003825700    0.0013131900   -0.0000090000
   0.0006642100    0.0135231900    0.0075060300
  -0.0028741700   -0.0009574300    0.0002987100
   0.0009736800   -0.0011449000    0.0000975900
   0.0013068800    0.0028742400    0.0013400600
   0.0006642100   -0.0135231900    0.0075060300
  -0.0028741700    0.0009574300    0.0002987100
   0.0009736800    0.0011449000    0.0000975900
   0.0013068800   -0.0028742400    0.0013400600
  -0.0003348800   -0.0021573600    0.0009770100
  -0.0002507400    0.0006774700    0.0002667800
   0.0003340200    0.0003985500    0.0002561100
   0.0003219000   -0.0009693100    0.0005817700
  -0.0003348800    0.0021573600    0.0009770100
  -0.0002507400   -0.0006774700    0.0002667800
   0.0003340200   -0.0003985500    0.0002561100
   0.0003219000    0.0009693100    0.0005817700

65
  0.0064574127267021   0.0064574127267021   0.0040747566496726
   0.0026731000   -0.0029152100    0.0069601500
  -0.0032588600   -0.0006803800    0.0005912000
  -0.0030253700    0.0014636400   -0.0011778900
   0.0036612200    0.0080351200   -0.0081435400
   0.0008871500   -0.0020955600    0.0009179100
  -0.0011816600   -0.0006949900    0.0002493700
  -0.0009496200    0.0003476900   -0.0004405000
   0.0013058600    0.0009584800   -0.0011487000
   0.0011548800    0.0003555600    0.0005165300
  -0.0009629800    0.0001944500    0.0002620800
  -0.0011644900   -0.0008451300   -0.0004240100
   0.0010339300   -0.0026857500   -0.0015443600
   0.0037418800    0.0046051900    0.0026715700
  -0.0025914100    0.0011270400    0.0006899000
  -0.0036843900   -0.0010193500   -0.0010784800
   0.0025760700   -0.0063654900   -0.0123819900
   0.0264370400    0.0063156000   -0.0010007500
  -0.0110617700    0.0004532200    0.0021306700
  -0.0133838600    0.0004496800   -0.0019818300
   0.0157817600    0.0066421200    0.0142981900
   0.0015537900   -0.0090983000   -0.0017903900
  -0.0027215800   -0.0013229600    0.0000547700
  -0.0020942000    0.0016127600    0.0004693800
   0.0031991200    0.0073461400    0.0030972000
   0.0008644400   -0.0010399200   -0.0004569400
  -0.0009554800   -0.0003612900   -0.0001834600
  -0.0009209900   -0.0003556400    0.0003211300
   0.0010055200   -0.0010320100    0.0008955400
   0.0028836600    0.0037680700   -0.0010521000
  -0.0018257700    0.0012272700   -0.0002237700
  -0.0029786200   -0.0017120200    0.0001897800
   0.0018492400   -0.0126050000    0.0038101200
   0.0257948700    0.0071364600    0.0145174200
  -0.0121046400    0.0006169100   -0.0051732500
  -0.0069169600    0.0004210200    0.0003252200
  -0.0038138300    0.0006163300    0.0079128800
   0.0031820000   -0.0048128800    0.0005294600
  -0.0014027600   -0.0027512600   -0.0002820100
  -0.0022365800   -0.0000034300   -0.0000662900
   0.0003509300    0.0020264300    0.0001136900
   0.0013071800   -0.0008915300    0.0003529400
  -0.0002371100   -0.0004501600    0.0003280000
  -0.0011120000   -0.0002338000    0.0000278500
   0.0000042800   -0.0004465900   -0.0001462900
   0.0031741600    0.0013836400    0.0019564900
  -0.0003463200    0.0027221500    0.0005838800
  -0.0022347400    0.0000216000    0.0002124600
  -0.0006994900   -0.0020587600    0.0009719000
   0.0043109700   -0.0033278900   -0.0046982300
  -0.0018316000   -0.0016594600   -0.0010913400
  -0.0028292700    0.0001468100   -0.0000234200
   0.0000936400    0.0018773200    0.0002992400
   0.0015158600   -0.0012273500   -0.0005835700
  -0.0004257100   -0.0011524900   -0.0004305900
  -0.0012348800   -0.0001636000    0.0000104100
   0.0001403500    0.0003918800    0.0002745600
   0.0015159300   -0.0001107000   -0.0005302900
  -0.0001422900    0.0005166300   -0.0005164600
  -0.0012348600   -0.0001744000   -0.0000750700
  -0.0001431000   -0.0010255200    0.0001878000
   0.0043061500    0.0049774700   -0.0033698700
  -0.0010411400    0.0022905000   -0.0016986400
  -0.0028290700    0.0001893900   -0.0002250000
  -0.0006892800   -0.0012484200   -0.0003001700
  -0.1412179700   -0.0241593600   -0.0477904200
   0.0166776300    0.0011192600    0.0052066800
   0.0068211000    0.0000919000   -0.0007822500
   0.0255011700    0.0010874000   -0.0088724700
  -0.0046776500    0.0003348700   -0.0010075800
   0.0019117000    0.0008123600    0.0000097700
   0.0021648900   -0.0000184000   -0.0003410000
   0.0008498900   -0.0007333600   -0.0007531400
  -0.0015186700    0.0001788000   -0.0005188400
   0.0002487400    0.0001078300   -0.0003959000
   0.0010763800    0.0000581800   -0.0003331200
   0.0002183300    0.0001075800   -0.0003564600
  -0.0046605600    0.0006130800   -0.0014312800
   0.0003598600   -0.0004000800   -0.0005163800
   0.0021608100    0.0000512300   -0.0004516700
   0.0023872400    0.0011398300   -0.0012720100
  -0.0062542300   -0.0001757500    0.0021838000
   0.0021049200    0.0003596700   -0.0000202400
   0.0027583400   -0.0000468300    0.0003917300
   0.0016930600   -0.0008302700    0.0012081000
  -0.0018304600    0.0001305800    0.0005300100
   0.0004784800    0.0002304000    0.0003513800
   0.0011818500    0.0000286700    0.0003216000
   0.0001444400   -0.0001051200    0.0003543400
  -0.0018237200    0.0001860500    0.0006200700
   0.0001391200   -0.0000524400    0.0004378800
   0.0011795200    0.0000518300    0.0003586100
   0.0004797200    0.0002811400    0.0004339400
  -0.0062418900    0.0000852000    0.0025780700
   0.0009049800   -0.0005044100    0.0005011000
   0.0027600900    0.0000097100    0.0004843500
   0.0028768600    0.0006873100    0.0017236900
  -0.0009731300   -0.0018445800   -0.0078532200
   0.0007633200   -0.0003604700   -0.0013006300
   0.0008656000   -0.0003616000    0.0010487000
   0.0032567900   -0.0018229600    0.0122014700
  -0.0003753500    0.0030163800   -0.0014072200
   0.0003615800    0.0007460000   -0.0004612800
   0.0003069800   -0.0008730000   -0.0002309800
  -0.0004837900   -0.0029647500    0.0002945200
  -0.0001767200    0.0006918700   -0.0003381100
   0.0001645300    0.0002727300   -0.0002948700
   0.0001589900    0.0002684700   -0.0003005900
  -0.0002156200    0.0006820300   -0.0002449000
  -0.0003837500   -0.0017468800   -0.0005578500
   0.0002777100   -0.0006376200   -0.0003443000
   0.0003903400    0.0009860400   -0.0001176500
  -0.0004705500    0.0042179900    0.0011385000
   0.0069992900    0.0161061100   -0.0079176300
   0.0009645300    0.0012531800   -0.0001546600
   0.0009814700   -0.0021959400    0.0008804200
   0.0007353700   -0.0157157800    0.0038311600
  -0.0001879700    0.0023761700   -0.0001024300
   0.0002899400    0.0007399900    0.0001815800
   0.0002365200   -0.0003643300    0.0004284100
  -0.0003118200   -0.0010797000    0.0006016400
  -0.0002937600   -0.0004192900    0.0000935700
   0.0002218700   -0.0002108300    0.0002022100
   0.0003037100    0.0008913800    0.0004561800
  -0.0002054700    0.0030203200    0.0008002600
  -0.0031013900   -0.0083503000   -0.0019015200
   0.0008572400   -0.0017563500   -0.0001843400
   0.0010876100    0.0016947700    0.0008480700
   0.0106290400    0.0232327400    0.0097088800
  -0.0006745100    0.0004519600   -0.0011200000
   0.0023919600    0.0001352500   -0.0003452500
   0.0017886000   -0.0001696500    0.0001243200
  -0.0033323900   -0.0002697800    0.0019709100
  -0.0005428100    0.0002327900   -0.0004916300
   0.0009812000    0.0001094000   -0.0003414700
   0.0007274100   -0.0000255300   -0.0001492300
  -0.0011615300    0.0000171400    0.0001588200
  -0.0007537400   -0.0000473900   -0.0003830800
   0.0008442600   -0.0000317900   -0.0003318400
   0.0008637300    0.0001030300   -0.0001419400
  -0.0009503000    0.0001673200    0.0002627800
  -0.0013973900   -0.0006853300   -0.0004541700
   0.0020826800   -0.0002104100   -0.0002819200
   0.0020937300    0.0000941900    0.0001902100
  -0.0026065900    0.0000378700    0.0026248600
   0.0300293800   -0.0044790200    0.0251168800
   0.0078501700   -0.0004011500    0.0006058000
   0.0062238800   -0.0003988700   -0.0019682300
   0.0019692800   -0.0043777600   -0.0194306400
  -0.0005330000    0.0007937700    0.0008958100
   0.0019392200    0.0002172200    0.0003792200
   0.0013167400   -0.0001759400    0.0000114400
  -0.0025241200   -0.0001023300   -0.0008546900
  -0.0005887200    0.0001149700    0.0004194800
   0.0008197200    0.0000540900    0.0003338600
   0.0007068200    0.0000544900    0.0001594200
  -0.0009131100    0.0001151500   -0.0001046700
  -0.0014293800   -0.0004395500    0.0003500100
   0.0015446800   -0.0002290600    0.0002904600
   0.0017052000    0.0001640600   -0.0000737100
  -0.0016234100    0.0004538600   -0.0013926300
  -0.0018436900    0.0074886800    0.0055652400
   0.0009035200    0.0031083300    0.0007517700
   0.0006849500   -0.0001654400   -0.0003219600
   0.0003635600   -0.0028894600   -0.0011779900
  -0.0003596900    0.0015577200   -0.0000455200
   0.0001322700    0.0012156200   -0.0000720400
   0.0002698000    0.0001610100   -0.0003055900
  -0.0000218300   -0.0004084300   -0.0004592500
  -0.0003590500    0.0000797300   -0.0002100100
   0.0000489300   -0.0005476100   -0.0001194100
   0.0002691000    0.0001642000   -0.0002958900
   0.0000615600    0.0010740300   -0.0004983700
  -0.0018369400   -0.0051442000   -0.0011687900
   0.0008941600   -0.0039683200    0.0009119200
   0.0006846300   -0.0002296200   -0.0002615300
   0.0003746400    0.0020350800   -0.0010197900
  -0.0002074400   -0.0002241400    0.0107158000
   0.0006322800   -0.0004652600    0.0027039100
   0.0006126200   -0.0002394100    0.0003455500
   0.0002650100   -0.0004615900   -0.0016368300
  -0.0004614700    0.0018076200    0.0008257700
   0.0001724600    0.0014357300    0.0005985700
   0.0003333600    0.0000174900    0.0003326100
  -0.0000341000   -0.0010504200    0.0002075800
  -0.0002401000    0.0006111200    0.0003411300
   0.0000412500    0.0003328600    0.0002955200
   0.0001961200    0.0001960800    0.0003006400
   0.0000013300    0.0003365500    0.0003106400
  -0.0004609000   -0.0009043900    0.0002385800
   0.0000617900   -0.0012937100    0.0004469100
   0.0003327000    0.0000243600    0.0002678300
   0.0000761400    0.0011848100    0.0000575600

65
 -0.0064574127267021  -0.0064574127267021  -0.0040747566496726
  -0.0026557600    0.0029544400   -0.0069804800
   0.0032726300    0.0006779100   -0.0005948500
   0.0030410400   -0.0014730900    0.0011933400
  -0.0037029400   -0.0081119300    0.0081924000
  -0.0008928900    0.0020963600   -0.0009162400
   0.0011892200    0.0007006400   -0.0002500000
   0.0009569900   -0.0003562500    0.0004389500
  -0.0013156600   -0.0009648700    0.0011606200
  -0.0011646000   -0.0003698000   -0.0005208300
   0.0009716000   -0.0002007500   -0.0002569400
   0.0011700700    0.0008538300    0.0004310400
  -0.0010397700    0.0027169800    0.0015645100
  -0.0037458800   -0.0046281000   -0.0027296400
   0.0026133700   -0.0011247500   -0.0006913300
   0.0037090500    0.0010295700    0.0010922000
  -0.0026299600    0.0064051900    0.0125022200
  -0.0245312900   -0.0066257500    0.0003693400
   0.0111195500   -0.0004501100   -0.0021339500
   0.0134886400   -0.0004483400    0.0019874500
  -0.0182774200   -0.0063016700   -0.0148108500
  -0.0015418300    0.0091208200    0.0017838400
   0.0027303000    0.0013241400   -0.0000493700
   0.0021078900   -0.0016315600   -0.0004724500
  -0.0032257000   -0.0073847200   -0.0031218900
  -0.0008666500    0.0010334100    0.0004564900
   0.0009612300    0.0003666800    0.0001809400
   0.0009234400    0.0003586300   -0.0003233200
  -0.0010118800    0.0010421700   -0.0009098400
  -0.0028961200   -0.0038421800    0.0010651300
   0.0018472700   -0.0012350000    0.0002247800
   0.0030043900    0.0017253400   -0.0001921800
  -0.0018936000    0.0127399900   -0.0038746600
  -0.0260891100   -0.0073151300   -0.0133074800
   0.0120924200   -0.0006153500    0.0052044700
   0.0069293100   -0.0004209600   -0.0003418400
   0.0037220600   -0.0006210000   -0.0080042600
  -0.0031926300    0.0048619300   -0.0005307700
   0.0014160500    0.0027575200    0.0002826500
   0.0022441400    0.0000055900    0.0000640200
  -0.0003620500   -0.0020244800   -0.0001233800
  -0.0013101900    0.0008910300   -0.0003614900
   0.0002383300    0.0004458600   -0.0003315500
   0.0011165500    0.0002316600   -0.0000271300