64
2

1
  0.0100000000000000   0.0000000000000000   0.0000000000000000
  -0.0192589500   -0.0000000000   -0.0000000000
   0.0029834700   -0.0000000000   -0.0000000000
  -0.0000258000   -0.0000000000   -0.0000000000
   0.0001180900   -0.0000000000   -0.0000000000
  -0.0000258000   -0.0000000000   -0.0000000000
   0.0001180900   -0.0000000000   -0.0000000000
  -0.0001468800   -0.0000000000   -0.0000000000
   0.0001509000   -0.0000000000   -0.0000000000
  -0.0005602800   -0.0000022000   -0.0000022000
   0.0003980100    0.0000005200    0.0000005200
  -0.0005602800    0.0000022000   -0.0000022000
   0.0003980100   -0.0000005200    0.0000005200
  -0.0005602800   -0.0000022000    0.0000022000
   0.0003980100    0.0000005200   -0.0000005200
  -0.0005602800    0.0000022000    0.0000022000
   0.0003980100   -0.0000005200   -0.0000005200
   0.0005034800   -0.0000000000    0.0019496200
   0.0005035700   -0.0000000000   -0.0019360700
  -0.0000045000   -0.0000000000   -0.0000201200
  -0.0000029200   -0.0000000000    0.0000196700
   0.0005034800   -0.0000000000   -0.0019496200
   0.0005035700   -0.0000000000    0.0019360700
  -0.0000045000   -0.0000000000    0.0000201200
  -0.0000029200   -0.0000000000   -0.0000196700
   0.0005034800    0.0019496200   -0.0000000000
   0.0005035700   -0.0019360700   -0.0000000000
   0.0005034800   -0.0019496200   -0.0000000000
   0.0005035700    0.0019360700   -0.0000000000
  -0.0000045000   -0.0000201200   -0.0000000000
  -0.0000029200    0.0000196700   -0.0000000000
  -0.0000045000    0.0000201200   -0.0000000000
  -0.0000029200   -0.0000196700   -0.0000000000
  -0.0000657000   -0.0004299500   -0.0004299500
  -0.0000694700    0.0004281200    0.0004281200
  -0.0000657000    0.0004299500   -0.0004299500
  -0.0000694700   -0.0004281200    0.0004281200
  -0.0000657000   -0.0004299500    0.0004299500
  -0.0000694700    0.0004281200   -0.0004281200
  -0.0000657000    0.0004299500    0.0004299500
  -0.0000694700   -0.0004281200   -0.0004281200
   0.0052373800   -0.0000000000   -0.0000000000
   0.0048252700   -0.0000000000   -0.0000000000
   0.0000566600   -0.0000000000   -0.0000000000
   0.0000518800   -0.0000000000   -0.0000000000
   0.0000566600   -0.0000000000   -0.0000000000
   0.0000518800   -0.0000000000   -0.0000000000
   0.0000043900   -0.0000000000   -0.0000000000
   0.0000016000   -0.0000000000   -0.0000000000
   0.0017123100   -0.0000114100   -0.0000000000
  -0.0009506500   -0.0000009200   -0.0000000000
   0.0017123100    0.0000114100   -0.0000000000
  -0.0009506500    0.0000009200   -0.0000000000
   0.0002079000    0.0000014200   -0.0000000000
  -0.0002214600    0.0000001100   -0.0000000000
   0.0002079000   -0.0000014200   -0.0000000000
  -0.0002214600   -0.0000001100   -0.0000000000
   0.0017123100   -0.0000000000   -0.0000114100
  -0.0009506500   -0.0000000000   -0.0000009200
   0.0002079000   -0.0000000000    0.0000014200
  -0.0002214600   -0.0000000000    0.0000001100
   0.0017123100   -0.0000000000    0.0000114100
  -0.0009506500   -0.0000000000    0.0000009200
   0.0002079000   -0.0000000000   -0.0000014200
  -0.0002214600   -0.0000000000   -0.0000001100

33
  0.0100000000000000   0.0000000000000000   0.0000000000000000
  -0.0000700900   -0.0004286100   -0.0004286100
  -0.0000676900    0.0004295500    0.0004295500
  -0.0000700900    0.0004286100   -0.0004286100
  -0.0000676900   -0.0004295500    0.0004295500
  -0.0000700900   -0.0004286100    0.0004286100
  -0.0000676900    0.0004295500   -0.0004295500
  -0.0000700900    0.0004286100    0.0004286100
  -0.0000676900   -0.0004295500   -0.0004295500
   0.0048245000    0.0000000000   -0.0000000000
   0.0052340900    0.0000000000   -0.0000000000
   0.0000518600    0.0000000000   -0.0000000000
   0.0000537100    0.0000000000   -0.0000000000
   0.0000518600    0.0000000000   -0.0000000000
   0.0000537100    0.0000000000   -0.0000000000
   0.0000007400    0.0000000000   -0.0000000000
   0.0000021300    0.0000000000   -0.0000000000
   0.0017121600    0.0000079500   -0.0000000000
  -0.0009539400    0.0000003700   -0.0000000000
   0.0017121600   -0.0000079500   -0.0000000000
  -0.0009539400   -0.0000003700   -0.0000000000
   0.0002080500    0.0000001900   -0.0000000000
  -0.0002248500    0.0000002200   -0.0000000000
   0.0002080500   -0.0000001900   -0.0000000000
  -0.0002248500   -0.0000002200   -0.0000000000
   0.0017121600    0.0000000000    0.0000079500
  -0.0009539400    0.0000000000    0.0000003700
   0.0002080500    0.0000000000    0.0000001900
  -0.0002248500    0.0000000000    0.0000002200
   0.0017121600    0.0000000000   -0.0000079500
  -0.0009539400    0.0000000000   -0.0000003700
   0.0002080500    0.0000000000   -0.0000001900
  -0.0002248500    0.0000000000   -0.0000002200
  -0.0242164400    0.0000000000   -0.0000000000
   0.0013091800    0.0000000000   -0.0000000000
  -0.0005165100    0.0000000000   -0.0000000000
   0.0006521700    0.0000000000   -0.0000000000
  -0.0005165100    0.0000000000   -0.0000000000
   0.0006521700    0.0000000000   -0.0000000000
  -0.0001706900    0.0000000000   -0.0000000000
   0.0001751400    0.0000000000   -0.0000000000
  -0.0008046300    0.0000030500    0.0000030500
   0.0005207900   -0.0000013900   -0.0000013900
  -0.0008046300   -0.0000030500    0.0000030500
   0.0005207900    0.0000013900   -0.0000013900
  -0.0008046300    0.0000030500   -0.0000030500
   0.0005207900   -0.0000013900    0.0000013900
  -0.0008046300   -0.0000030500   -0.0000030500
   0.0005207900    0.0000013900    0.0000013900
   0.0013926900    0.0000000000    0.0020739400
   0.0014020200    0.0000000000   -0.0020890500
  -0.0000129600    0.0000000000    0.0001906200
  -0.0000118200    0.0000000000   -0.0001943200
   0.0013926900    0.0000000000   -0.0020739400
   0.0014020200    0.0000000000    0.0020890500
  -0.0000129600    0.0000000000   -0.0001906200
  -0.0000118200    0.0000000000    0.0001943200
   0.0013926900    0.0020739400   -0.0000000000
   0.0014020200   -0.0020890500   -0.0000000000
   0.0013926900   -0.0020739400   -0.0000000000
   0.0014020200    0.0020890500   -0.0000000000
  -0.0000129600    0.0001906200   -0.0000000000
  -0.0000118200   -0.0001943200   -0.0000000000
  -0.0000129600   -0.0001906200   -0.0000000000
  -0.0000118200    0.0001943200   -0.0000000000
