    -0.02013361     0.01375265     0.01747863     0.05515566    -0.02573465    -0.02829834
    -0.01768102     0.00372457    -0.02394805     0.02209518     0.02017335     0.02934232
    -0.00286270    -0.00321453     0.02968959     0.01648417     0.03029189    -0.04927203
     0.02516644     0.01496813     0.00652727    -0.03430861    -0.03274630    -0.03205016
    -0.01363937    -0.02263722    -0.01419591     0.04557600     0.03477732     0.03741516
     0.02991223    -0.00038398    -0.00226070    -0.04475003    -0.02290559    -0.00357345
    -0.02651536    -0.00309215    -0.01368847     0.06764193     0.01567277     0.04881797
     0.02847126    -0.00491056    -0.00807923    -0.04278736     0.04514107     0.01028413
    -0.02838862    -0.00722309    -0.00647404     0.06402336     0.01560126     0.00681527
    -0.00747987    -0.02117166     0.01989503     0.00012165     0.05572351    -0.06132433
     0.02375482     0.01722777    -0.00623798    -0.04876540    -0.00085965    -0.01000128
    -0.01644263    -0.01425661    -0.02064919     0.00489231     0.04372679     0.03294104
     0.02610117     0.00727641    -0.01287567    -0.03840412    -0.00893321     0.01134166
     0.00002543    -0.01192971    -0.02752601     0.00206183     0.02035826     0.06654133
     0.01883311     0.00971591     0.02123476    -0.04640264    -0.00975902    -0.02551481
    -0.01228676     0.00919078     0.02577916     0.02087788    -0.03204254    -0.07054185
    -0.00844300    -0.00410802     0.02849280     0.01355736     0.02479002    -0.03377541
    -0.02949579    -0.00135024    -0.00530806     0.04490218    -0.00549569     0.00058156
    -0.02759211    -0.00826469     0.00838870     0.05261788     0.01187289    -0.00688611
     0.01653882     0.01978838     0.01532604    -0.01842310    -0.01522854    -0.03036507
     0.02173159     0.01359823     0.01558288    -0.07833332    -0.06799528    -0.00502562
     0.01298379     0.01675728    -0.02122769    -0.02260227    -0.06597915     0.03763377
    -0.00038252    -0.02940981     0.00590902    -0.00212688     0.03365392     0.01174845
     0.00700573    -0.02679273     0.01153556     0.00317213     0.04901669    -0.00027512
     0.02638650    -0.01016838    -0.01001781    -0.00626372     0.00662002     0.03394757
     0.00817700    -0.00914253     0.02737793     0.00545242     0.01223629    -0.02708623
     0.00694987    -0.01092709    -0.02706100    -0.04297971     0.01829842     0.03821729
    -0.01766751     0.01892171     0.01516007     0.04719709    -0.02784373    -0.03279658
     0.02978462     0.00003187     0.00358827    -0.08975750    -0.01760803    -0.02120602
    -0.00255655    -0.00030748     0.02988929     0.01332928    -0.01082873    -0.02180097
     0.00393225    -0.02391786    -0.01767692    -0.00305043     0.02322861     0.04205831
     0.01580136    -0.02432750     0.00764786    -0.02419950     0.03063680     0.02726591
     0.02488000     0.00673464    -0.01535025    -0.04954507    -0.01380949     0.03960003
    -0.01490900     0.01432942     0.02173452     0.00430116    -0.01921604    -0.01595238
    -0.01725181     0.01930616    -0.01515411     0.05380114    -0.05599563     0.02923916
    -0.01007608    -0.00365027     0.02802049     0.01146591     0.02047748    -0.06318516
     0.00389711    -0.02798792     0.01007415    -0.00780696     0.04539674    -0.02373709
    -0.00780082    -0.01007180     0.02716075     0.03789753     0.01357680    -0.05632239
     0.00091794    -0.02559548     0.01562141     0.01657678     0.04556597    -0.05924648
    -0.01908020    -0.02305707     0.00207788     0.01566557     0.03932040     0.00184246
    -0.00501779    -0.02579341     0.01447487     0.00487321     0.04672085    -0.02338442
     0.02215908    -0.01032891    -0.01738646    -0.07777587     0.04003370     0.05789006
    -0.02288458     0.01897466     0.00403218     0.06929448    -0.05168279     0.00146830
     0.02652579     0.00795653    -0.01153587    -0.04266022    -0.01891986     0.07102975
    -0.00188502    -0.02157376     0.02076101     0.01557826     0.03106541    -0.01894937
     0.02650517    -0.01404339    -0.00050919    -0.07770249     0.05406940    -0.01419987
    -0.01451961    -0.00599821     0.02555783     0.03832256     0.00090938    -0.05534269
     0.02936254    -0.00384760     0.00479968    -0.07991301    -0.03732039     0.00104981
     0.02950986    -0.00408205     0.00353625    -0.05332994     0.02095264    -0.00203030
     0.02607322    -0.00567227    -0.01371176    -0.03136873     0.02235314     0.02603073
    -0.02071144     0.02160274    -0.00208757     0.02180041    -0.03751601     0.04240992
     0.00598362     0.02303409    -0.01826546    -0.00639855    -0.04299575     0.04993259
    -0.01268318     0.00464487    -0.02678735     0.03645732    -0.02358170     0.06312767
    -0.02762010     0.01118628     0.00346369     0.09655934    -0.03261886    -0.01379098
    -0.02422419     0.00843178    -0.01555935     0.07163397    -0.03216539     0.02697248
     0.02654329     0.01398048     0.00001252    -0.05462556    -0.03982416    -0.00992873
     0.02452381     0.01678934     0.00408669    -0.08744994    -0.01363261    -0.00338922
    -0.01634844     0.01828333    -0.01727567     0.03817434    -0.05277462     0.03499048
     0.02470262     0.00687550     0.01557267    -0.07149836    -0.00886328    -0.02822420
    -0.01253944     0.01884146    -0.01969167     0.02589410    -0.03844240     0.04508140
    -0.02336190    -0.01201227     0.01448886     0.06806461     0.04751541    -0.04213366
    -0.02757943     0.01170208     0.00156092     0.08501681    -0.01732044    -0.03139009
     0.01191801     0.02619821     0.00846255    -0.02335670    -0.07831868    -0.01600991
    -0.00525512    -0.02881854    -0.00647112     0.01605014     0.03918102     0.01139375
    -0.00674581    -0.01920061     0.02204157     0.00000136     0.04474584    -0.02607398
     0.00384049    -0.02022216    -0.02182464    -0.00445914     0.00944770     0.06750677
    -0.01605400     0.02108146     0.01406561     0.01331720    -0.03670745    -0.01450445
     0.01487266    -0.01412607     0.02189197    -0.02753818     0.00542316    -0.01858023
     0.00687891    -0.01467397     0.02524589    -0.02215878    -0.01260916    -0.04667351
     0.00596160     0.01745883     0.02365689    -0.00257890    -0.01020987    -0.03706413
    -0.01023352    -0.01592165     0.02327608    -0.00246489     0.04042904    -0.03143322
    -0.01719415    -0.01610864     0.01857075     0.02240370     0.05182311     0.00829455
    -0.00421096     0.01418481     0.02609710    -0.01678509    -0.02764077    -0.06370694
     0.00718063     0.01708355     0.02359218    -0.02974443    -0.02770764    -0.05264113
     0.01393451    -0.02565606     0.00689900    -0.03827015     0.06836225     0.02345012
    -0.00184780     0.01804584     0.02389421    -0.00575519    -0.00478338    -0.04527151
    -0.02614226     0.01010181    -0.01070213     0.05522559    -0.04250262     0.04456498
     0.00044720    -0.02977580    -0.00363343     0.01101963     0.06334474     0.03376079
    -0.00211791    -0.00992713     0.02823060    -0.03763975     0.01534843    -0.02617253
    -0.02079131    -0.01350510    -0.01689182     0.03209244     0.00799572     0.04546195
     0.01381287    -0.02493815    -0.00934308    -0.01865351     0.03113092     0.00315702
     0.01301862     0.02670461    -0.00416886    -0.01138219    -0.04824979     0.01525268
     0.00825382    -0.02622337    -0.01200871    -0.02499022     0.03807796    -0.00447549
     0.00991581     0.00613653     0.02764091    -0.04163083     0.00223298    -0.04418221
    -0.01042132    -0.02753084    -0.00578349     0.00811727     0.05545252     0.01032775
     0.00066250    -0.00260130     0.02987966     0.02023108    -0.01253760    -0.02818650
    -0.01851815    -0.01860417    -0.01452456     0.03128816     0.04658689     0.04272744
     0.01013806    -0.02811665     0.00258332    -0.05075831     0.07212115     0.01443965
    -0.02371580     0.00830131    -0.01639052     0.01928174    -0.02933766     0.04132977
     0.00975120     0.02211682    -0.01776965    -0.02334521    -0.06388657     0.05165401
     0.00814563     0.02531669     0.01388214     0.00732910    -0.07305743    -0.01500395
     0.01163519     0.02063505    -0.01840698    -0.02916197    -0.05819683     0.04575940
    -0.02457624     0.00307036    -0.01692872     0.03814867     0.00134896     0.03244440
    -0.01317109    -0.00372134    -0.02669595     0.02248217    -0.01565718     0.05529880
     0.01508444    -0.00459239     0.02552195    -0.01863450     0.03274872    -0.04887482
    -0.01165540     0.00860094    -0.02627119     0.03887366    -0.00576564     0.06857275
    -0.02697690     0.00124666     0.01306495     0.05650631     0.00384368    -0.03337272
    -0.01616346    -0.01634270     0.01927845     0.03980198     0.06236067    -0.03819961
    -0.01735448    -0.02443905     0.00124686     0.05935540     0.02563719     0.01705398
    -0.02156380     0.01597619     0.01340761     0.05840210    -0.02235816    -0.03003271
     0.00702557     0.02357872     0.01716640    -0.03625301    -0.07599612    -0.07748125
     0.02559597     0.01140732     0.01071070    -0.06793522    -0.05009356    -0.05563469
    -0.02822187     0.00981264    -0.00269037     0.06019551    -0.04363101     0.02319735
    -0.02056957     0.00514369     0.02122346     0.04866038    -0.03628917    -0.06274671
    -0.00419124    -0.02912287     0.00585592     0.01522633     0.07196587    -0.02335806
    -0.01214836    -0.02693778     0.00517431     0.03608249     0.08067770    -0.00434846
    -0.02642512    -0.00631286    -0.01272245     0.04685195     0.02293493     0.02205882
     0.00607597    -0.02684993     0.01192324    -0.01527837     0.07209327     0.01345866
    -0.01253995     0.01470960    -0.02294292     0.06017089    -0.01730649     0.05853871
    -0.00037366    -0.01408522     0.02648522     0.00631912     0.04441641    -0.02338208
     0.00768117     0.02898348    -0.00097848    -0.04788182    -0.08615448     0.00928575
    -0.02999806    -0.00017078     0.00029567     0.07293771     0.00024072     0.01715191
    -0.02820462    -0.00891209     0.00500739     0.05211087     0.00669359    -0.00931195
     0.01442114    -0.02623607    -0.00192338    -0.04254763     0.05019474     0.01236910
    -0.00414922     0.01583578     0.02513985     0.00611219    -0.04149658    -0.02820350
     0.02420533    -0.01747378    -0.00296128    -0.06715133     0.00904338     0.03009791
    -0.01291127    -0.02689649    -0.00314291     0.00700884     0.07988878     0.03501394
     0.02439422     0.01651047     0.00568562    -0.08310925    -0.04347019     0.03052437
     0.02401665     0.00271261     0.01777196    -0.05958495    -0.04435686    -0.02421786
     0.01600113     0.02534060     0.00134821    -0.06209273    -0.02910371     0.01331965
     0.01105464     0.02296472    -0.01582456    -0.02051878    -0.05771410     0.06692858
     0.00584514     0.02861647    -0.00685070    -0.02097294    -0.04335418     0.03412863
    -0.01654587     0.01057125    -0.02268221     0.02303917    -0.03983158     0.10174688
    -0.01316424     0.00087435     0.02694324     0.02429751     0.00118528    -0.03450093
     0.01476919    -0.02598587     0.00257018    -0.03000281     0.06309861     0.02785875
     0.00622814    -0.00515825     0.02888949    -0.04352964     0.00266004    -0.08116672
    -0.01947087     0.00433201     0.02240801     0.02914760    -0.01412141    -0.05102466
     0.00213456     0.01933913     0.02283510    -0.01922839    -0.06942776    -0.03690929
     0.02284536    -0.01692991     0.00956389    -0.07571094     0.01799811    -0.00350979
     0.00684488     0.02772377     0.00919458    -0.00745851    -0.02418849    -0.00818596
    -0.01602651     0.01973167     0.01593148     0.05149038    -0.04006454    -0.03690482
    -0.01859120    -0.01566681    -0.01757607     0.02973831     0.02658210     0.02510755
     0.01936786     0.02240014     0.00480830     0.00250085    -0.04793031     0.00896719
     0.02673172     0.01273495     0.00482042    -0.06450902    -0.00402285     0.01277909
    -0.02833478     0.00669968     0.00722873     0.05378898    -0.00626288    -0.00817569
     0.02932323     0.00625900     0.00098657    -0.07715375     0.01331113     0.00632438
    -0.01217587     0.02726449    -0.00289750     0.03408476    -0.05336277     0.00639394
    -0.02413854     0.00846958     0.01567153     0.02568073    -0.01695607    -0.02320917
    -0.01310070    -0.01499263     0.02244087     0.03427770     0.02058246    -0.03247838
     0.01224278    -0.02234944    -0.01583088    -0.01533932     0.03443657     0.04877163
     0.00272681     0.02336018    -0.01862436    -0.00435119    -0.05480928     0.04433389
    -0.00249167     0.02867903     0.00844421    -0.02038349    -0.04744654    -0.01643126
    -0.02962953    -0.00119323     0.00454614     0.05124846    -0.01920505    -0.02792680
     0.00058608    -0.00971325     0.02837797    -0.02755054     0.02274966    -0.02923153
    -0.02783889    -0.00421124    -0.01035672     0.01718639     0.01088337     0.02827181
    -0.00998176     0.00140354     0.02825588     0.00479192     0.00622318    -0.05844240
     0.01311453     0.02299284    -0.01411874    -0.02210601    -0.04046034     0.03268984
     0.00596191    -0.00675086    -0.02861611    -0.00744731     0.00753903     0.07369418
    -0.02233826     0.00290687     0.01981293     0.03724363    -0.01329702    -0.05170065
    -0.02227816     0.01175098    -0.01629717     0.03178097    -0.02554935     0.06428792
    -0.02400627    -0.00197486    -0.01788292     0.03706422     0.01975792    -0.00466724
    -0.01943764    -0.02252391     0.00385379     0.02789720     0.03652160     0.01521643
    -0.01303365     0.00562864    -0.02642806     0.00340671     0.02513959     0.02042795
     0.02074372     0.02153418     0.00244477    -0.04041439    -0.05904439    -0.00717988
    -0.00817977    -0.00550936     0.02833263     0.01296226     0.02553108    -0.05337388
     0.00856957    -0.01541381     0.02426885    -0.00157529     0.02949312    -0.02958130
    -0.01924662    -0.00697886    -0.02192859     0.03855497    -0.00588544     0.01662532
    -0.02946560    -0.00101070     0.00554587     0.05088169     0.01717503    -0.00969247
     0.00483784     0.02692112    -0.01232269    -0.01921303    -0.06796815     0.04514668
    -0.00669310     0.02903131     0.00351929     0.00686042    -0.05937081     0.02197687
    -0.00899810    -0.02591144    -0.01215037    -0.01283992     0.05138798    -0.00797020
     0.02623427     0.01272503    -0.00705949    -0.07887892    -0.02350565     0.03710568
    -0.00536928     0.02145229     0.02027239     0.01208375    -0.03672422    -0.06746722
     0.02710002    -0.00431301     0.01212381    -0.07976804    -0.01411971     0.00558634
     0.01670899    -0.01087973    -0.02241520    -0.05323677     0.01561498     0.03383923
    -0.02789302     0.01088562    -0.00186625     0.06402423    -0.02703096     0.01108417
    -0.02344505     0.01799421    -0.00515147     0.04408703    -0.03911510     0.03572457
     0.00798876    -0.02284189     0.01773212    -0.04917703     0.02670272    -0.02904845
    -0.01866383     0.02348534     0.00031639     0.05337952    -0.05257263     0.01711197
    -0.01062319    -0.02795249     0.00240953     0.02231077     0.06046694     0.00732227
     0.01366700     0.02640776    -0.00398039    -0.04800579    -0.05435465    -0.00027074
     0.01687887     0.00247699     0.02467728    -0.05379802    -0.00220719    -0.05962067
    -0.00118018    -0.02779006    -0.01123922     0.00447748     0.09941334     0.01999195
     0.02655814    -0.00900067     0.01066082    -0.04400659     0.03913688    -0.00396497
     0.00643420    -0.02715887    -0.01099987    -0.00894174     0.05859023    -0.00703796
    -0.01728291     0.00798919     0.02318349     0.03459086     0.00117058    -0.06431340
    -0.02520100     0.01307250    -0.00969634     0.06208178    -0.02282504    -0.00785157
     0.00460393     0.02771167    -0.01052935    -0.00314492    -0.05561828     0.04954621
    -0.00436912    -0.02709673    -0.01211106     0.01865925     0.05662546     0.06421475
     0.01943280    -0.01707744     0.01518972    -0.04784045     0.04194062    -0.01091062
    -0.00559819     0.00864667     0.02817615    -0.02916513    -0.00862726    -0.06456957
     0.01506479     0.02294714     0.01210293    -0.03089065    -0.05265791    -0.04107173
    -0.00110482    -0.02046469    -0.02190835    -0.01703773     0.03637122     0.06269543
    -0.01961412     0.01530245     0.01676667     0.07315574    -0.02636136    -0.02701429
    -0.02526293    -0.00258114     0.01597254     0.02638542     0.01453301    -0.03227671
    -0.01920859     0.00902194     0.02120459     0.05158980    -0.01399254    -0.03695688
     0.02674307    -0.01129673    -0.00756256    -0.04601876     0.02662023     0.02833650
    -0.02288280    -0.01856538    -0.00563066     0.06899502     0.04266478     0.00557965
     0.01207195    -0.02549848     0.01020273    -0.06711496     0.07400997    -0.01409625
    -0.01309780     0.02661920    -0.00445712     0.02168104    -0.05261453     0.02711514
     0.02498315    -0.01658845     0.00081574    -0.08425595     0.03439222     0.00967714
    -0.02187312    -0.01906975     0.00760993     0.02839191     0.07458620    -0.01081318
     0.00396975     0.01798841    -0.02367823    -0.01984964    -0.02564195     0.03135803
    -0.02970080     0.00058387    -0.00418591     0.02390989    -0.00257708     0.01938188
    -0.00230194    -0.00528153    -0.02944158     0.01589236    -0.00382298     0.03854299
     0.01925638     0.00057622     0.02299695    -0.06525215    -0.02100983    -0.03561487
     0.02763140     0.00850646     0.00800910    -0.01121554    -0.01173845    -0.05220781
     0.00195100     0.02987894     0.00185540     0.00908996    -0.06224466    -0.01153160
    -0.02750720     0.00246929    -0.01171565     0.06036073     0.02262826     0.03769361
    -0.00242949    -0.02539169    -0.01579112     0.02424587     0.02779836     0.03170088
     0.01734112    -0.02392115    -0.00520231    -0.00914930     0.05111732     0.00299616
     0.02788260    -0.00350303     0.01050188    -0.07395616     0.00641720    -0.02996472
    -0.00864340     0.00575677    -0.02814518     0.01754592     0.01469638     0.07475761
    -0.02931461    -0.00593678    -0.00232555     0.05226800     0.01863872     0.03644516
     0.00956921    -0.02452261    -0.01438999    -0.00682452     0.06721785     0.01543400
    -0.02845353    -0.00333380     0.00890406     0.04359948     0.01109823    -0.03115668
     0.01435909     0.02416829    -0.01047427    -0.03702663    -0.05891058     0.02230835
    -0.01612710    -0.02063026     0.01463929     0.00588738     0.00754442    -0.01874261
     0.02392464    -0.01771935    -0.00369269    -0.05556917     0.04473971     0.00628094
     0.00454360    -0.02704997     0.01215134    -0.03619645     0.01807499    -0.02870782
    -0.01688396     0.02479769     0.00008213     0.02188417    -0.05519423     0.00391000
     0.01442627     0.00152084    -0.02625966    -0.02119763    -0.01621886     0.05140652
     0.00116855     0.02890073    -0.00796131     0.01509406    -0.01354826    -0.00638131
    -0.02241833    -0.01614034     0.01170076     0.02313290     0.01467277    -0.02829739
    -0.00206928     0.02921613    -0.00649121    -0.00368094    -0.03243947     0.01025824
    -0.00557978     0.01375182     0.02607208     0.00783302    -0.03664824    -0.07508161
    -0.01432671     0.02220152     0.01420697     0.02987026    -0.02283013     0.00508535
    -0.00957714    -0.01916378    -0.02100066     0.00134968     0.00474472     0.00825137
     0.00555776    -0.01132857    -0.02721718    -0.00486322     0.00413362     0.05653822
     0.01860106    -0.01923995    -0.01355820    -0.02808067     0.02314983     0.02760010
    -0.00317141     0.02544169     0.01557763     0.02204019    -0.04324008    -0.02983004
     0.02957923     0.00082529    -0.00493841    -0.03898645     0.00628681    -0.00839616
     0.02901809    -0.00425725     0.00631082    -0.05119580     0.00000678     0.00817536
     0.00261629     0.02869121     0.00836478    -0.01349103    -0.05952364    -0.01160873
     0.01477706    -0.02465110     0.00860010    -0.03322704     0.06350287    -0.00460080
    -0.02713919    -0.00746849    -0.01037718     0.09405633     0.02535273    -0.01381805
     0.00296573     0.01473575     0.02596271    -0.03321669    -0.02852375    -0.07311676
     0.00647764    -0.02785589    -0.00906032    -0.03405949     0.03778341     0.01900694
     0.00336022     0.02439127     0.01713986    -0.01088726    -0.06423787    -0.04112081
     0.00590252    -0.00667637    -0.02864588    -0.02522254    -0.01056903     0.06513102
    -0.01439143     0.02537525     0.00699882     0.02947012    -0.00560393    -0.00004510
    -0.02590408    -0.01165072     0.00965606     0.06207865     0.03179193    -0.00864243
    -0.01917376     0.02305433     0.00093007     0.02281949    -0.06334381    -0.02727069
    -0.01793459    -0.01994155     0.01344191     0.02973788     0.02679462    -0.03683801
     0.00025537    -0.02701981    -0.01303321     0.01415963     0.09987862     0.04431095
    -0.02207305    -0.00523904    -0.01962989     0.05432268    -0.03025399     0.04140218
     0.02223703     0.00604548    -0.01920851    -0.05247752     0.01080063     0.06297615
     0.01861875    -0.00041278    -0.02351961    -0.01715032     0.00228736     0.05621447
     0.00452954    -0.02590872     0.01442988    -0.02426707     0.07508315    -0.03722506
     0.02810364    -0.00134781     0.01041004    -0.07704925     0.01306740    -0.02710594
     0.02088708     0.01333302    -0.01691037    -0.09248900    -0.03557883     0.02588184
    -0.02455621     0.01144217    -0.01288679     0.06348727    -0.03483577     0.02104047
     0.00712355    -0.02312203     0.01773771    -0.00031955     0.06495840    -0.07201098
     0.00827307    -0.02448527     0.01523245    -0.03791006     0.04970925    -0.01922559
     0.01116808     0.02513135     0.01198704    -0.00534512    -0.05809246    -0.04745315
     0.00331944    -0.02113420    -0.02103157     0.02038360     0.05020054     0.07311922
     0.00450386    -0.00171916     0.02961013     0.00889572     0.02187859    -0.07260969
    -0.02051867    -0.00311924     0.02166228     0.07009876     0.00669817    -0.04177139
    -0.02260954     0.01639496    -0.01095510     0.05019301    -0.04307149     0.00831882
    -0.02673772     0.00935532     0.00987787     0.08840380    -0.05342490    -0.04341871
     0.01548335     0.02569174    -0.00044779    -0.03591828    -0.07400586    -0.03154886
    -0.02261190     0.01060062     0.01662315     0.04561268    -0.02344594    -0.02945135
     0.00305965    -0.00255067    -0.02973437    -0.02271094     0.00980332     0.06852004
     0.00784232    -0.02802580    -0.00728370    -0.03330833     0.05549024     0.03071875
     0.02397862    -0.00059485     0.01801865    -0.06468317     0.01845484    -0.04425708
    -0.02420632     0.00142968    -0.01766381     0.04905348    -0.01592595     0.03428616
    -0.01858582     0.02313411     0.00440230     0.07030011    -0.05539764     0.00416145
    -0.00209286    -0.02320769     0.01889505    -0.00575287     0.04822102    -0.01952445
    -0.02667893    -0.00830870     0.01091789     0.04927712     0.00802669    -0.03443565
    -0.02005209    -0.01112644    -0.01934208     0.01963553    -0.00040433     0.02146318
     0.00213937    -0.01422272    -0.02632750    -0.01039209     0.04435015     0.05191709
    -0.01340714     0.02105149     0.01664581     0.05190262    -0.00874622    -0.01441926
    -0.02464623    -0.00176139    -0.01701354     0.03210262     0.00684660     0.03426241
    -0.01714678     0.02456395    -0.00161262     0.04342166    -0.06504706     0.01171637
    -0.00425261     0.02714672     0.01204040     0.00874894    -0.06892341    -0.00561779
     0.00703946     0.02843457    -0.00647466    -0.02771796    -0.06972706     0.03567508
    -0.00104326    -0.01562805     0.02558663    -0.00619623     0.04256410    -0.04472452
     0.02919013     0.00220576     0.00656286    -0.09150337     0.01174839    -0.01501637
     0.02339314     0.01092530    -0.01527740    -0.03575423    -0.05232446     0.00316245
     0.00257268    -0.00230233     0.02980068     0.00562577    -0.02691272    -0.01586024
    -0.00317285     0.01621062     0.02504294    -0.02857929    -0.02750264    -0.03767916
    -0.02400070    -0.01474672    -0.01031991     0.04166786     0.02562618     0.01937337
    -0.02780562    -0.00566586     0.00973373     0.04326271     0.00183913    -0.00957865
    -0.01060703     0.00677592    -0.02723193     0.00869288     0.01920247     0.09186587
    -0.01672252    -0.02484291     0.00178528     0.04682323     0.01271085    -0.01751753
    -0.02517337    -0.01546126     0.00522020     0.03784412     0.01187680    -0.02120902
    -0.01083767    -0.02530645     0.01192176     0.01936830     0.05025615    -0.00330770
    -0.00571809     0.00352001     0.02923889     0.01522727    -0.00871478    -0.06413554
    -0.01350895     0.00416009    -0.02646133     0.01952179    -0.02355883     0.05136526
    -0.00182902    -0.02858534     0.00891814     0.00597017     0.03403477    -0.02609739
    -0.01618546    -0.02398593     0.00791871     0.04383124     0.02091192     0.00674349
     0.01112558    -0.02173347     0.01743209    -0.01681318     0.03622506    -0.04052730
    -0.00339463    -0.02579990     0.01492788    -0.00007586     0.03829313    -0.01024374
    -0.02628134     0.01013636    -0.01032209     0.05179722    -0.02554466    -0.00356407
     0.01416519    -0.01554946     0.02139069    -0.01605536     0.00174574    -0.02559197
    -0.02523580    -0.00394296     0.01573555     0.02904760    -0.02476746    -0.01423867
     0.02081315    -0.01688006     0.01348614    -0.06549531     0.04510589    -0.03503348
    -0.02242948     0.00396133    -0.01952502     0.02284220     0.02828175     0.07187087
     0.00952149    -0.02453816     0.01439514    -0.02411903     0.07070161     0.00106584
    -0.01652343     0.00818483    -0.02366400     0.04316324    -0.00500144     0.04282130
    -0.02841823    -0.00089868    -0.00957062     0.08481013    -0.04601545     0.04391040
    -0.01775413     0.00815212     0.02276695     0.03183812    -0.03882541    -0.06427252
     0.00292588    -0.02890812     0.00746724    -0.00525177     0.03035431    -0.00912861
     0.01016187    -0.02550849     0.01208526     0.00323884     0.05499263     0.03063910
    -0.00777075     0.02872543     0.00380328     0.00103541    -0.08293551    -0.00213348
    -0.01736649     0.02375037    -0.00585874     0.02108445    -0.08631879    -0.00002522
     0.01835453     0.01354626     0.01948358    -0.03852100    -0.05928777    -0.03846497
     0.02212159    -0.01092618     0.01706616    -0.06684570    -0.00373127    -0.00323332
    -0.01115678    -0.01957329    -0.01980941    -0.01439853     0.00943748     0.02759124
     0.01017614     0.01175248    -0.02565785    -0.01376157    -0.01096608     0.06568906
     0.02887901     0.00180914    -0.00792022    -0.07725921    -0.02979454     0.04767431
     0.00622947     0.02762054     0.00991460    -0.03204296    -0.06349299    -0.04977906
     0.02820534    -0.00206853     0.01000899    -0.07050321    -0.00263424    -0.03138558
    -0.00748989    -0.02882214     0.00363122    -0.02310444     0.07665632    -0.00900322
     0.00967651    -0.02814409     0.00377829    -0.03148519     0.07564776    -0.00257928
     0.00901018     0.01610423     0.02365313    -0.00553577    -0.05296179    -0.04655324
     0.02544282     0.01188598     0.01055396    -0.08119324    -0.03107607     0.01220121
    -0.00794766    -0.01391613    -0.02536092     0.00281625     0.00566390     0.06942018
    -0.02480833     0.00824067    -0.01471862     0.06258842    -0.00618649     0.03251892
     0.01041024    -0.01153046     0.02566467    -0.03115356     0.06860978    -0.03088208
    -0.01825701     0.01975371    -0.01328430     0.03582104    -0.07988027     0.04152902
    -0.02262779     0.00972100     0.01713141     0.04675296    -0.02813835    -0.04964444
     0.00875430     0.02126298     0.01926779    -0.05499162    -0.03562667    -0.05334523
    -0.02004324     0.02025508     0.00938086     0.05072293    -0.06110579    -0.01613172
     0.02099713    -0.01979424     0.00820419    -0.07574272     0.05022322    -0.02136348
     0.00844740    -0.02463066    -0.01489873    -0.04180898     0.10271114     0.02907292
    -0.02135501    -0.01992952    -0.00683941     0.05653532     0.05266288     0.01218841
     0.02989692     0.00168471     0.00182639    -0.07554749    -0.01477536     0.04807837
     0.01310027    -0.01816261    -0.01996253    -0.03164381     0.05849734     0.02647348
    -0.00365517    -0.02605281     0.01441842    -0.00807250     0.05230040    -0.04820270
     0.01169415    -0.02299636    -0.01531060    -0.01373254     0.07706015     0.06553841
     0.00032109    -0.01794158    -0.02404156    -0.00575045     0.05416555     0.03780324
     0.02600163     0.01495347     0.00055590    -0.02717225    -0.01551952     0.01074241
    -0.00545080    -0.00584175     0.02891648     0.03628021    -0.02229246    -0.04818837
    -0.01265828     0.02591326    -0.00826261     0.03346885    -0.01611217     0.01007188
     0.01222705     0.02688279     0.00527397    -0.04091934    -0.07492321    -0.02240300
     0.00979710     0.02048573     0.01960489     0.00686989    -0.01863435    -0.00261030
    -0.01101489     0.01788452    -0.02142000     0.04407994    -0.02646152     0.02036163
     0.01061934     0.01469067     0.02390426    -0.00083671    -0.01859803    -0.02213288