phonopy:
  version: "2.20.0"
  frequency_unit_conversion_factor: 15.633302
  symmetry_tolerance: 1.00000e-05
  configuration:
    cell_filename: "POSCAR-unitcell"
    displacement_distance: "0.03"
    primitive_axes: "auto"
    dim: "2 2 2"
    random_displacements: "10"

physical_unit:
  atomic_mass: "AMU"
  length: "angstrom"
  force_constants: "eV/angstrom^2"

space_group:
  type: "Fm-3m"
  number: 225
  Hall_symbol: "-F 4 2 3"

primitive_matrix:
- [  0.000000000000000,  0.500000000000000,  0.500000000000000 ]
- [  0.500000000000000,  0.000000000000000,  0.500000000000000 ]
- [  0.500000000000000,  0.500000000000000,  0.000000000000000 ]

supercell_matrix:
- [   2,   0,   0 ]
- [   0,   2,   0 ]
- [   0,   0,   2 ]

primitive_cell:
  lattice:
  - [     0.000000000000000,     2.845150738087836,     2.845150738087836 ] # a
  - [     2.845150738087836,     0.000000000000000,     2.845150738087836 ] # b
  - [     2.845150738087836,     2.845150738087836,     0.000000000000000 ] # c
  points:
  - symbol: Na # 1
    coordinates: [  0.000000000000000,  0.000000000000000,  0.000000000000000 ]
    mass: 22.989769
  - symbol: Cl # 2
    coordinates: [  0.500000000000000,  0.500000000000000,  0.500000000000000 ]
    mass: 35.453000
  reciprocal_lattice: # without 2pi
  - [    -0.175737613233118,     0.175737613233118,     0.175737613233118 ] # a*
  - [     0.175737613233118,    -0.175737613233118,     0.175737613233118 ] # b*
  - [     0.175737613233118,     0.175737613233118,    -0.175737613233118 ] # c*

unit_cell:
  lattice:
  - [     5.690301476175671,     0.000000000000000,     0.000000000000000 ] # a
  - [     0.000000000000000,     5.690301476175671,     0.000000000000000 ] # b
  - [     0.000000000000000,     0.000000000000000,     5.690301476175671 ] # c
  points:
  - symbol: Na # 1
    coordinates: [  0.000000000000000,  0.000000000000000,  0.000000000000000 ]
    mass: 22.989769
    reduced_to: 1
  - symbol: Na # 2
    coordinates: [  0.000000000000000,  0.500000000000000,  0.500000000000000 ]
    mass: 22.989769
    reduced_to: 1
  - symbol: Na # 3
    coordinates: [  0.500000000000000,  0.000000000000000,  0.500000000000000 ]
    mass: 22.989769
    reduced_to: 1
  - symbol: Na # 4
    coordinates: [  0.500000000000000,  0.500000000000000,  0.000000000000000 ]
    mass: 22.989769
    reduced_to: 1
  - symbol: Cl # 5
    coordinates: [  0.500000000000000,  0.500000000000000,  0.500000000000000 ]
    mass: 35.453000
    reduced_to: 5
  - symbol: Cl # 6
    coordinates: [  0.500000000000000,  0.000000000000000,  0.000000000000000 ]
    mass: 35.453000
    reduced_to: 5
  - symbol: Cl # 7
    coordinates: [  0.000000000000000,  0.500000000000000,  0.000000000000000 ]
    mass: 35.453000
    reduced_to: 5
  - symbol: Cl # 8
    coordinates: [  0.000000000000000,  0.000000000000000,  0.500000000000000 ]
    mass: 35.453000
    reduced_to: 5

supercell:
  lattice:
  - [    11.380602952351342,     0.000000000000000,     0.000000000000000 ] # a
  - [     0.000000000000000,    11.380602952351342,     0.000000000000000 ] # b
  - [     0.000000000000000,     0.000000000000000,    11.380602952351342 ] # c
  points:
  - symbol: Na # 1
    coordinates: [  0.000000000000000,  0.000000000000000,  0.000000000000000 ]
    mass: 22.989769
    reduced_to: 1
  - symbol: Na # 2
    coordinates: [  0.500000000000000,  0.000000000000000,  0.000000000000000 ]
    mass: 22.989769
    reduced_to: 1
  - symbol: Na # 3
    coordinates: [  0.000000000000000,  0.500000000000000,  0.000000000000000 ]
    mass: 22.989769
    reduced_to: 1
  - symbol: Na # 4
    coordinates: [  0.500000000000000,  0.500000000000000,  0.000000000000000 ]
    mass: 22.989769
    reduced_to: 1
  - symbol: Na # 5
    coordinates: [  0.000000000000000,  0.000000000000000,  0.500000000000000 ]
    mass: 22.989769
    reduced_to: 1
  - symbol: Na # 6
    coordinates: [  0.500000000000000,  0.000000000000000,  0.500000000000000 ]
    mass: 22.989769
    reduced_to: 1
  - symbol: Na # 7
    coordinates: [  0.000000000000000,  0.500000000000000,  0.500000000000000 ]
    mass: 22.989769
    reduced_to: 1
  - symbol: Na # 8
    coordinates: [  0.500000000000000,  0.500000000000000,  0.500000000000000 ]
    mass: 22.989769
    reduced_to: 1
  - symbol: Na # 9
    coordinates: [  0.000000000000000,  0.250000000000000,  0.250000000000000 ]
    mass: 22.989769
    reduced_to: 1
  - symbol: Na # 10
    coordinates: [  0.500000000000000,  0.250000000000000,  0.250000000000000 ]
    mass: 22.989769
    reduced_to: 1
  - symbol: Na # 11
    coordinates: [  0.000000000000000,  0.750000000000000,  0.250000000000000 ]
    mass: 22.989769
    reduced_to: 1
  - symbol: Na # 12
    coordinates: [  0.500000000000000,  0.750000000000000,  0.250000000000000 ]
    mass: 22.989769
    reduced_to: 1
  - symbol: Na # 13
    coordinates: [  0.000000000000000,  0.250000000000000,  0.750000000000000 ]
    mass: 22.989769
    reduced_to: 1
  - symbol: Na # 14
    coordinates: [  0.500000000000000,  0.250000000000000,  0.750000000000000 ]
    mass: 22.989769
    reduced_to: 1
  - symbol: Na # 15
    coordinates: [  0.000000000000000,  0.750000000000000,  0.750000000000000 ]
    mass: 22.989769
    reduced_to: 1
  - symbol: Na # 16
    coordinates: [  0.500000000000000,  0.750000000000000,  0.750000000000000 ]
    mass: 22.989769
    reduced_to: 1
  - symbol: Na # 17
    coordinates: [  0.250000000000000,  0.000000000000000,  0.250000000000000 ]
    mass: 22.989769
    reduced_to: 1
  - symbol: Na # 18
    coordinates: [  0.750000000000000,  0.000000000000000,  0.250000000000000 ]
    mass: 22.989769
    reduced_to: 1
  - symbol: Na # 19
    coordinates: [  0.250000000000000,  0.500000000000000,  0.250000000000000 ]
    mass: 22.989769
    reduced_to: 1
  - symbol: Na # 20
    coordinates: [  0.750000000000000,  0.500000000000000,  0.250000000000000 ]
    mass: 22.989769
    reduced_to: 1
  - symbol: Na # 21
    coordinates: [  0.250000000000000,  0.000000000000000,  0.750000000000000 ]
    mass: 22.989769
    reduced_to: 1
  - symbol: Na # 22
    coordinates: [  0.750000000000000,  0.000000000000000,  0.750000000000000 ]
    mass: 22.989769
    reduced_to: 1
  - symbol: Na # 23
    coordinates: [  0.250000000000000,  0.500000000000000,  0.750000000000000 ]
    mass: 22.989769
    reduced_to: 1
  - symbol: Na # 24
    coordinates: [  0.750000000000000,  0.500000000000000,  0.750000000000000 ]
    mass: 22.989769
    reduced_to: 1
  - symbol: Na # 25
    coordinates: [  0.250000000000000,  0.250000000000000,  0.000000000000000 ]
    mass: 22.989769
    reduced_to: 1
  - symbol: Na # 26
    coordinates: [  0.750000000000000,  0.250000000000000,  0.000000000000000 ]
    mass: 22.989769
    reduced_to: 1
  - symbol: Na # 27
    coordinates: [  0.250000000000000,  0.750000000000000,  0.000000000000000 ]
    mass: 22.989769
    reduced_to: 1
  - symbol: Na # 28
    coordinates: [  0.750000000000000,  0.750000000000000,  0.000000000000000 ]
    mass: 22.989769
    reduced_to: 1
  - symbol: Na # 29
    coordinates: [  0.250000000000000,  0.250000000000000,  0.500000000000000 ]
    mass: 22.989769
    reduced_to: 1
  - symbol: Na # 30
    coordinates: [  0.750000000000000,  0.250000000000000,  0.500000000000000 ]
    mass: 22.989769
    reduced_to: 1
  - symbol: Na # 31
    coordinates: [  0.250000000000000,  0.750000000000000,  0.500000000000000 ]
    mass: 22.989769
    reduced_to: 1
  - symbol: Na # 32
    coordinates: [  0.750000000000000,  0.750000000000000,  0.500000000000000 ]
    mass: 22.989769
    reduced_to: 1
  - symbol: Cl # 33
    coordinates: [  0.250000000000000,  0.250000000000000,  0.250000000000000 ]
    mass: 35.453000
    reduced_to: 33
  - symbol: Cl # 34
    coordinates: [  0.750000000000000,  0.250000000000000,  0.250000000000000 ]
    mass: 35.453000
    reduced_to: 33
  - symbol: Cl # 35
    coordinates: [  0.250000000000000,  0.750000000000000,  0.250000000000000 ]
    mass: 35.453000
    reduced_to: 33
  - symbol: Cl # 36
    coordinates: [  0.750000000000000,  0.750000000000000,  0.250000000000000 ]
    mass: 35.453000
    reduced_to: 33
  - symbol: Cl # 37
    coordinates: [  0.250000000000000,  0.250000000000000,  0.750000000000000 ]
    mass: 35.453000
    reduced_to: 33
  - symbol: Cl # 38
    coordinates: [  0.750000000000000,  0.250000000000000,  0.750000000000000 ]
    mass: 35.453000
    reduced_to: 33
  - symbol: Cl # 39
    coordinates: [  0.250000000000000,  0.750000000000000,  0.750000000000000 ]
    mass: 35.453000
    reduced_to: 33
  - symbol: Cl # 40
    coordinates: [  0.750000000000000,  0.750000000000000,  0.750000000000000 ]
    mass: 35.453000
    reduced_to: 33
  - symbol: Cl # 41
    coordinates: [  0.250000000000000,  0.000000000000000,  0.000000000000000 ]
    mass: 35.453000
    reduced_to: 33
  - symbol: Cl # 42
    coordinates: [  0.750000000000000,  0.000000000000000,  0.000000000000000 ]
    mass: 35.453000
    reduced_to: 33
  - symbol: Cl # 43
    coordinates: [  0.250000000000000,  0.500000000000000,  0.000000000000000 ]
    mass: 35.453000
    reduced_to: 33
  - symbol: Cl # 44
    coordinates: [  0.750000000000000,  0.500000000000000,  0.000000000000000 ]
    mass: 35.453000
    reduced_to: 33
  - symbol: Cl # 45
    coordinates: [  0.250000000000000,  0.000000000000000,  0.500000000000000 ]
    mass: 35.453000
    reduced_to: 33
  - symbol: Cl # 46
    coordinates: [  0.750000000000000,  0.000000000000000,  0.500000000000000 ]
    mass: 35.453000
    reduced_to: 33
  - symbol: Cl # 47
    coordinates: [  0.250000000000000,  0.500000000000000,  0.500000000000000 ]
    mass: 35.453000
    reduced_to: 33
  - symbol: Cl # 48
    coordinates: [  0.750000000000000,  0.500000000000000,  0.500000000000000 ]
    mass: 35.453000
    reduced_to: 33
  - symbol: Cl # 49
    coordinates: [  0.000000000000000,  0.250000000000000,  0.000000000000000 ]
    mass: 35.453000
    reduced_to: 33
  - symbol: Cl # 50
    coordinates: [  0.500000000000000,  0.250000000000000,  0.000000000000000 ]
    mass: 35.453000
    reduced_to: 33
  - symbol: Cl # 51
    coordinates: [  0.000000000000000,  0.750000000000000,  0.000000000000000 ]
    mass: 35.453000
    reduced_to: 33
  - symbol: Cl # 52
    coordinates: [  0.500000000000000,  0.750000000000000,  0.000000000000000 ]
    mass: 35.453000
    reduced_to: 33
  - symbol: Cl # 53
    coordinates: [  0.000000000000000,  0.250000000000000,  0.500000000000000 ]
    mass: 35.453000
    reduced_to: 33
  - symbol: Cl # 54
    coordinates: [  0.500000000000000,  0.250000000000000,  0.500000000000000 ]
    mass: 35.453000
    reduced_to: 33
  - symbol: Cl # 55
    coordinates: [  0.000000000000000,  0.750000000000000,  0.500000000000000 ]
    mass: 35.453000
    reduced_to: 33
  - symbol: Cl # 56
    coordinates: [  0.500000000000000,  0.750000000000000,  0.500000000000000 ]
    mass: 35.453000
    reduced_to: 33
  - symbol: Cl # 57
    coordinates: [  0.000000000000000,  0.000000000000000,  0.250000000000000 ]
    mass: 35.453000
    reduced_to: 33
  - symbol: Cl # 58
    coordinates: [  0.500000000000000,  0.000000000000000,  0.250000000000000 ]
    mass: 35.453000
    reduced_to: 33
  - symbol: Cl # 59
    coordinates: [  0.000000000000000,  0.500000000000000,  0.250000000000000 ]
    mass: 35.453000
    reduced_to: 33
  - symbol: Cl # 60
    coordinates: [  0.500000000000000,  0.500000000000000,  0.250000000000000 ]
    mass: 35.453000
    reduced_to: 33
  - symbol: Cl # 61
    coordinates: [  0.000000000000000,  0.000000000000000,  0.750000000000000 ]
    mass: 35.453000
    reduced_to: 33
  - symbol: Cl # 62
    coordinates: [  0.500000000000000,  0.000000000000000,  0.750000000000000 ]
    mass: 35.453000
    reduced_to: 33
  - symbol: Cl # 63
    coordinates: [  0.000000000000000,  0.500000000000000,  0.750000000000000 ]
    mass: 35.453000
    reduced_to: 33
  - symbol: Cl # 64
    coordinates: [  0.500000000000000,  0.500000000000000,  0.750000000000000 ]
    mass: 35.453000
    reduced_to: 33

displacements:
- #    1
  - displacement: # 1
      [  -0.0201336051051884,  0.0137526506253330,  0.0174786311319239 ]
  - displacement: # 2
      [  -0.0176810186962932,  0.0037245664471804, -0.0239480517504424 ]
  - displacement: # 3
      [  -0.0028626950563326, -0.0032145292137935,  0.0296895904139501 ]
  - displacement: # 4
      [   0.0251664434224757,  0.0149681266628547,  0.0065272742908559 ]
  - displacement: # 5
      [  -0.0136393731379345, -0.0226372187886819, -0.0141959087739228 ]
  - displacement: # 6
      [   0.0299122348895043, -0.0003839832933863, -0.0022606991718315 ]
  - displacement: # 7
      [  -0.0265153637733336, -0.0030921513486749, -0.0136884653633881 ]
  - displacement: # 8
      [   0.0284712562630672, -0.0049105574746481, -0.0080792321473599 ]
  - displacement: # 9
      [  -0.0283886215005682, -0.0072230897182700, -0.0064740361614141 ]
  - displacement: # 10
      [  -0.0074798717084311, -0.0211716619474856,  0.0198950307767242 ]
  - displacement: # 11
      [   0.0237548239927972,  0.0172277681105092, -0.0062379758737708 ]
  - displacement: # 12
      [  -0.0164426252212811, -0.0142566086895747, -0.0206491933136584 ]
  - displacement: # 13
      [   0.0261011670760715,  0.0072764068977535, -0.0128756739600429 ]
  - displacement: # 14
      [   0.0000254338692470, -0.0119297090415913, -0.0275260130658486 ]
  - displacement: # 15
      [   0.0188331099723160,  0.0097159106089751,  0.0212347604132718 ]
  - displacement: # 16
      [  -0.0122867631050076,  0.0091907799738588,  0.0257791585563520 ]
  - displacement: # 17
      [  -0.0084429999823786, -0.0041080188108460,  0.0284928049294430 ]
  - displacement: # 18
      [  -0.0294957857896775, -0.0013502434142766, -0.0053080564589747 ]
  - displacement: # 19
      [  -0.0275921113441131, -0.0082646893675375,  0.0083887008071677 ]
  - displacement: # 20
      [   0.0165388185276685,  0.0197883799114518,  0.0153260400035005 ]
  - displacement: # 21
      [   0.0217315904235816,  0.0135982315880917,  0.0155828776334258 ]
  - displacement: # 22
      [   0.0129837902803375,  0.0167572824924394, -0.0212276864831002 ]
  - displacement: # 23
      [  -0.0003825172624448, -0.0294098138338174,  0.0059090211375604 ]
  - displacement: # 24
      [   0.0070057325242247, -0.0267927345508580,  0.0115355575108565 ]
  - displacement: # 25
      [   0.0263865042834688, -0.0101683755399765, -0.0100178106678301 ]
  - displacement: # 26
      [   0.0081769957469007, -0.0091425302750082,  0.0273779268887497 ]
  - displacement: # 27
      [   0.0069498746748877, -0.0109270883359236, -0.0270610048317182 ]
  - displacement: # 28
      [  -0.0176675138608440,  0.0189217134586980,  0.0151600697150050 ]
  - displacement: # 29
      [   0.0297846154057265,  0.0000318697165236,  0.0035882683085480 ]
  - displacement: # 30
      [  -0.0025565533726816, -0.0003074771880677,  0.0298892872553269 ]
  - displacement: # 31
      [   0.0039322532882391, -0.0239178599588469, -0.0176769159942033 ]
  - displacement: # 32
      [   0.0158013646841114, -0.0243274981480569,  0.0076478564301381 ]
  - displacement: # 33
      [   0.0248800026428531,  0.0067346380891107, -0.0153502481510990 ]
  - displacement: # 34
      [  -0.0149089951880734,  0.0143294244923084,  0.0217345222216003 ]
  - displacement: # 35
      [  -0.0172518132678400,  0.0193061618522345, -0.0151541101192682 ]
  - displacement: # 36
      [  -0.0100760804457330, -0.0036502713961889,  0.0280204946706028 ]
  - displacement: # 37
      [   0.0038971128870890, -0.0279879249391345,  0.0100741535002528 ]
  - displacement: # 38
      [  -0.0078008159828045, -0.0100717967304912,  0.0271607470556700 ]
  - displacement: # 39
      [   0.0009179432087352, -0.0255954835719690,  0.0156214148201309 ]
  - displacement: # 40
      [  -0.0190802037285531, -0.0230570652978282,  0.0020778752437511 ]
  - displacement: # 41
      [  -0.0050177857799486, -0.0257934073764644,  0.0144748734632913 ]
  - displacement: # 42
      [   0.0221590796867187, -0.0103289070650499, -0.0173864564037418 ]
  - displacement: # 43
      [  -0.0228845788868262,  0.0189746560125415,  0.0040321803504246 ]
  - displacement: # 44
      [   0.0265257869491305,  0.0079565266018273, -0.0115358706287714 ]
  - displacement: # 45
      [  -0.0018850157207710, -0.0215737631851098,  0.0207610081105241 ]
  - displacement: # 46
      [   0.0265051685571110, -0.0140433886986306, -0.0005091891773260 ]
  - displacement: # 47
      [  -0.0145196054995560, -0.0059982099926314,  0.0255578272359283 ]
  - displacement: # 48
      [   0.0293625448843404, -0.0038476024092091,  0.0047996784908724 ]
  - displacement: # 49
      [   0.0295098592813066, -0.0040820510079105,  0.0035362500995121 ]
  - displacement: # 50
      [   0.0260732235018461, -0.0056722713381145, -0.0137117597006943 ]
  - displacement: # 51
      [  -0.0207114388635001,  0.0216027390147896, -0.0020875744926559 ]
  - displacement: # 52
      [   0.0059836154469503,  0.0230340866809152, -0.0182654645974063 ]
  - displacement: # 53
      [  -0.0126831827580472,  0.0046448685470132, -0.0267873490906985 ]
  - displacement: # 54
      [  -0.0276201017154428,  0.0111862795217442,  0.0034636875855080 ]
  - displacement: # 55
      [  -0.0242241935724619,  0.0084317835206332, -0.0155593532135843 ]
  - displacement: # 56
      [   0.0265432884480838,  0.0139804750103165,  0.0000125238865889 ]
  - displacement: # 57
      [   0.0245238081588335,  0.0167893369021236,  0.0040866856712650 ]
  - displacement: # 58
      [  -0.0163484356910252,  0.0182833250765995, -0.0172756671245946 ]
  - displacement: # 59
      [   0.0247026196459682,  0.0068755047607908,  0.0155726689077682 ]
  - displacement: # 60
      [  -0.0125394398666803,  0.0188414574734022, -0.0196916715417429 ]
  - displacement: # 61
      [  -0.0233618979793915, -0.0120122723003022,  0.0144888590642568 ]
  - displacement: # 62
      [  -0.0275794285395499,  0.0117020785741534,  0.0015609223158754 ]
  - displacement: # 63
      [   0.0119180062328754,  0.0261982128534411,  0.0084625510762969 ]
  - displacement: # 64
      [  -0.0052551244402599, -0.0288185411860601, -0.0064711166752531 ]
- #    2
  - displacement: # 1
      [  -0.0067458072631581, -0.0192006117475690,  0.0220415651188258 ]
  - displacement: # 2
      [   0.0038404924892544, -0.0202221641253054, -0.0218246350606188 ]
  - displacement: # 3
      [  -0.0160539993568356,  0.0210814573301181,  0.0140656056211289 ]
  - displacement: # 4
      [   0.0148726578056269, -0.0141260663763446,  0.0218919688134218 ]
  - displacement: # 5
      [   0.0068789137277143, -0.0146739691384906,  0.0252458942335044 ]
  - displacement: # 6
      [   0.0059616033830101,  0.0174588272122223,  0.0236568940792626 ]
  - displacement: # 7
      [  -0.0102335161040930, -0.0159216544470763,  0.0232760836013098 ]
  - displacement: # 8
      [  -0.0171941517247377, -0.0161086419743713,  0.0185707512020441 ]
  - displacement: # 9
      [  -0.0042109589022850,  0.0141848143106332,  0.0260971045921980 ]
  - displacement: # 10
      [   0.0071806265193476,  0.0170835518260388,  0.0235921779366952 ]
  - displacement: # 11
      [   0.0139345061519128, -0.0256560596667346,  0.0068989956282969 ]
  - displacement: # 12
      [  -0.0018477991531403,  0.0180458425456673,  0.0238942086101766 ]
  - displacement: # 13
      [  -0.0261422638435461,  0.0101018086603020, -0.0107021260936820 ]
  - displacement: # 14
      [   0.0004472035019214, -0.0297757987389811, -0.0036334306768616 ]
  - displacement: # 15
      [  -0.0021179056303981, -0.0099271275070121,  0.0282305971456548 ]
  - displacement: # 16
      [  -0.0207913074481275, -0.0135051044844205, -0.0168918230946906 ]
  - displacement: # 17
      [   0.0138128708755822, -0.0249381537851776, -0.0093430767930767 ]
  - displacement: # 18
      [   0.0130186220411799,  0.0267046075866358, -0.0041688624099026 ]
  - displacement: # 19
      [   0.0082538218126783, -0.0262233733309947, -0.0120087100317992 ]
  - displacement: # 20
      [   0.0099158061773990,  0.0061365275604608,  0.0276409084031615 ]
  - displacement: # 21
      [  -0.0104213154990847, -0.0275308441434135, -0.0057834941012861 ]
  - displacement: # 22
      [   0.0006625014560859, -0.0026012968653301,  0.0298796644298277 ]
  - displacement: # 23
      [  -0.0185181535983967, -0.0186041662262350, -0.0145245649274877 ]
  - displacement: # 24
      [   0.0101380592349201, -0.0281166533519465,  0.0025833232929164 ]
  - displacement: # 25
      [  -0.0237157978884554,  0.0083013065831815, -0.0163905228570037 ]
  - displacement: # 26
      [   0.0097512049354415,  0.0221168155214219, -0.0177696503482317 ]
  - displacement: # 27
      [   0.0081456341335335,  0.0253166892230633,  0.0138821428945767 ]
  - displacement: # 28
      [   0.0116351921011685,  0.0206350482444610, -0.0184069847807204 ]
  - displacement: # 29
      [  -0.0245762376511587,  0.0030703620047870, -0.0169287158424179 ]
  - displacement: # 30
      [  -0.0131710924305281, -0.0037213352547907, -0.0266959545270053 ]
  - displacement: # 31
      [   0.0150844350043930, -0.0045923894790244,  0.0255219470156802 ]
  - displacement: # 32
      [  -0.0116553991255416,  0.0086009448924174, -0.0262711898889624 ]
  - displacement: # 33
      [  -0.0269768978333454,  0.0012466606474279,  0.0130649462501535 ]
  - displacement: # 34
      [  -0.0161634613016154, -0.0163427004144115,  0.0192784507135811 ]
  - displacement: # 35
      [  -0.0173544818477814, -0.0244390527417894,  0.0012468604088111 ]
  - displacement: # 36
      [  -0.0215637968447919,  0.0159761905661650,  0.0134076098030231 ]
  - displacement: # 37
      [   0.0070255659643731,  0.0235787217535499,  0.0171664004191011 ]
  - displacement: # 38
      [   0.0255959732774582,  0.0114073217131831,  0.0107107032127487 ]
  - displacement: # 39
      [  -0.0282218729939587,  0.0098126357420080, -0.0026903651253195 ]
  - displacement: # 40
      [  -0.0205695709856917,  0.0051436918496229,  0.0212234583331915 ]
  - displacement: # 41
      [  -0.0041912359498728, -0.0291228723770397,  0.0058559239854315 ]
  - displacement: # 42
      [  -0.0121483599801447, -0.0269377770290796,  0.0051743133384449 ]
  - displacement: # 43
      [  -0.0264251195443609, -0.0063128604832492, -0.0127224545424721 ]
  - displacement: # 44
      [   0.0060759651397191, -0.0268499337725242,  0.0119232421778635 ]
  - displacement: # 45
      [  -0.0125399531256347,  0.0147095962277153, -0.0229429151248151 ]
  - displacement: # 46
      [  -0.0003736570685516, -0.0140852184460326,  0.0264852223272274 ]
  - displacement: # 47
      [   0.0076811650117115,  0.0289834828521199, -0.0009784813865026 ]
  - displacement: # 48
      [  -0.0299980567622513, -0.0001707829487448,  0.0002956749451169 ]
  - displacement: # 49
      [  -0.0282046206076090, -0.0089120919017276,  0.0050073939645290 ]
  - displacement: # 50
      [   0.0144211377657633, -0.0262360708529700, -0.0019233750905146 ]
  - displacement: # 51
      [  -0.0041492181710804,  0.0158357829468058,  0.0251398481902821 ]
  - displacement: # 52
      [   0.0242053299464133, -0.0174737755989947, -0.0029612781870750 ]
  - displacement: # 53
      [  -0.0129112700838473, -0.0268964907902493, -0.0031429107515144 ]
  - displacement: # 54
      [   0.0243942245112207,  0.0165104658196607,  0.0056856247602154 ]
  - displacement: # 55
      [   0.0240166460611705,  0.0027126078376324,  0.0177719574243154 ]
  - displacement: # 56
      [   0.0160011319931650,  0.0253406019724077,  0.0013482086683142 ]
  - displacement: # 57
      [   0.0110546369522235,  0.0229647171739983, -0.0158245621415824 ]
  - displacement: # 58
      [   0.0058451398485919,  0.0286164687240618, -0.0068506976225198 ]
  - displacement: # 59
      [  -0.0165458708502009,  0.0105712536897026, -0.0226822122650420 ]
  - displacement: # 60
      [  -0.0131642429085695,  0.0008743469240225,  0.0269432408240106 ]
  - displacement: # 61
      [   0.0147691905827156, -0.0259858653819385,  0.0025701770139810 ]
  - displacement: # 62
      [   0.0062281421501188, -0.0051582472461002,  0.0288894917003746 ]
  - displacement: # 63
      [  -0.0194708715281662,  0.0043320111381409,  0.0224080084218270 ]
  - displacement: # 64
      [   0.0021345641382013,  0.0193391309323568,  0.0228350969063209 ]
- #    3
  - displacement: # 1
      [   0.0228453564990607, -0.0169299074012827,  0.0095638863342690 ]
  - displacement: # 2
      [   0.0068448849139858,  0.0277237660790251,  0.0091945823673392 ]
  - displacement: # 3
      [  -0.0160265084676498,  0.0197316743207951,  0.0159314799951047 ]
  - displacement: # 4
      [  -0.0185911953824983, -0.0156668139468856, -0.0175760745049470 ]
  - displacement: # 5
      [   0.0193678630872834,  0.0224001365718579,  0.0048083012586941 ]
  - displacement: # 6
      [   0.0267317173294653,  0.0127349450875699,  0.0048204213751648 ]
  - displacement: # 7
      [  -0.0283347791554636,  0.0066996839142740,  0.0072287291870648 ]
  - displacement: # 8
      [   0.0293232257130721,  0.0062590028126459,  0.0009865685842941 ]
  - displacement: # 9
      [  -0.0121758713057509,  0.0272644941183145, -0.0028975020997725 ]
  - displacement: # 10
      [  -0.0241385426098309,  0.0084695800373595,  0.0156715338963401 ]
  - displacement: # 11
      [  -0.0131007023170056, -0.0149926337835256,  0.0224408674305227 ]
  - displacement: # 12
      [   0.0122427818913481, -0.0223494396936289, -0.0158308823803893 ]
  - displacement: # 13
      [   0.0027268117333504,  0.0233601772739723, -0.0186243554384964 ]
  - displacement: # 14
      [  -0.0024916681636737,  0.0286790321106790,  0.0084442114467118 ]
  - displacement: # 15
      [  -0.0296295260260814, -0.0011932334426810,  0.0045461391774812 ]
  - displacement: # 16
      [   0.0005860839713438, -0.0097132509331654,  0.0283779714195341 ]
  - displacement: # 17
      [  -0.0278388886831743, -0.0042112420940851, -0.0103567232709402 ]
  - displacement: # 18
      [  -0.0099817623777787,  0.0014035400849302,  0.0282558754078432 ]
  - displacement: # 19
      [   0.0131145252481141,  0.0229928357775414, -0.0141187368565176 ]
  - displacement: # 20
      [   0.0059619111376037, -0.0067508552606674, -0.0286161068078248 ]
  - displacement: # 21
      [  -0.0223382618221477,  0.0029068708030974,  0.0198129291347665 ]
  - displacement: # 22
      [  -0.0222781638937210,  0.0117509807193433, -0.0162971735481380 ]
  - displacement: # 23
      [  -0.0240062720853385, -0.0019748640591061, -0.0178829195746317 ]
  - displacement: # 24
      [  -0.0194376402989372, -0.0225239089175851,  0.0038537860191588 ]
  - displacement: # 25
      [  -0.0130336508814923,  0.0056286431416227, -0.0264280593514476 ]
  - displacement: # 26
      [   0.0207437217329105,  0.0215341843037453,  0.0024447730037587 ]
  - displacement: # 27
      [  -0.0081797748159009, -0.0055093637904676,  0.0283326347977988 ]
  - displacement: # 28
      [   0.0085695683026677, -0.0154138071206818,  0.0242688493578153 ]
  - displacement: # 29
      [  -0.0192466160987548, -0.0069788648875445, -0.0219285935168800 ]
  - displacement: # 30
      [  -0.0294656029538406, -0.0010106998385223,  0.0055458748996918 ]
  - displacement: # 31
      [   0.0048378418080004,  0.0269211176842411, -0.0123226908291983 ]
  - displacement: # 32
      [  -0.0066930992583419,  0.0290313115182321,  0.0035192859857286 ]
  - displacement: # 33
      [  -0.0089981021781773, -0.0259114367409891, -0.0121503746118710 ]
  - displacement: # 34
      [   0.0262342731034505,  0.0127250333675721, -0.0070594929370139 ]
  - displacement: # 35
      [  -0.0053692829348733,  0.0214522927237709,  0.0202723934861902 ]
  - displacement: # 36
      [   0.0271000221670941, -0.0043130141543612,  0.0121238074649547 ]
  - displacement: # 37
      [   0.0167089905389216, -0.0108797277861850, -0.0224151992734560 ]
  - displacement: # 38
      [  -0.0278930164134658,  0.0108856208771892, -0.0018662511825131 ]
  - displacement: # 39
      [  -0.0234450542053571,  0.0179942147260091, -0.0051514725760839 ]
  - displacement: # 40
      [   0.0079887568583884, -0.0228418865325381,  0.0177321172873463 ]
  - displacement: # 41
      [  -0.0186638302364168,  0.0234853429890589,  0.0003163946783308 ]
  - displacement: # 42
      [  -0.0106231939111017, -0.0279524942435884,  0.0024095262375178 ]
  - displacement: # 43
      [   0.0136669978416309,  0.0264077584036992, -0.0039803851683868 ]
  - displacement: # 44
      [   0.0168788736384762,  0.0024769864751627,  0.0246772802937887 ]
  - displacement: # 45
      [  -0.0011801818029095, -0.0277900553473172, -0.0112392168190283 ]
  - displacement: # 46
      [   0.0265581404647979, -0.0090006702953063,  0.0106608212294952 ]
  - displacement: # 47
      [   0.0064342029680137, -0.0271588652752206, -0.0109998667777761 ]
  - displacement: # 48
      [  -0.0172829061856456,  0.0079891881167625,  0.0231834860841322 ]
  - displacement: # 49
      [  -0.0252010039668391,  0.0130725032485241, -0.0096963425001744 ]
  - displacement: # 50
      [   0.0046039316656852,  0.0277116708578961, -0.0105293452541615 ]
  - displacement: # 51
      [  -0.0043691174324680, -0.0270967341226449, -0.0121110615863349 ]
  - displacement: # 52
      [   0.0194327953420093, -0.0170774410971467,  0.0151897159541930 ]
  - displacement: # 53
      [  -0.0055981891685102,  0.0086466716334875,  0.0281761485603731 ]
  - displacement: # 54
      [   0.0150647910343572,  0.0229471362420067,  0.0121029339162838 ]
  - displacement: # 55
      [  -0.0011048169451139, -0.0204646932345370, -0.0219083479599463 ]
  - displacement: # 56
      [  -0.0196141220792539,  0.0153024456231385,  0.0167666744768011 ]
  - displacement: # 57
      [  -0.0252629325553721, -0.0025811430281767,  0.0159725370361385 ]
  - displacement: # 58
      [  -0.0192085916503895,  0.0090219375937154,  0.0212045902781377 ]
  - displacement: # 59
      [   0.0267430657513907, -0.0112967313590369, -0.0075625587481055 ]