14.400
3.38121106 0 0 0 3.38121106 0 0 0 3.38121106
1.9715466666666668 0 0 0 1.9715466666666668 0 0 0 1.9715466666666668
-1.9721233333333332 0 0 0 -1.9721233333333332 0 0 0 -1.9721233333333332
