natom:   64
displacements:
- atom:    1
  direction:
    [   1.0000000000000000,  0.0000000000000000,  0.0000000000000000 ]
  displacement:
    [   0.0100000000000000,  0.0000000000000000,  0.0000000000000000 ]
- atom:   33
  direction:
    [   1.0000000000000000,  0.0000000000000000,  0.0000000000000000 ]
  displacement:
    [   0.0100000000000000,  0.0000000000000000,  0.0000000000000000 ]
lattice:
- [    8.511112930988579,   0.000000000000000,   0.000000000000000 ]
- [    0.000000000000000,   8.511112930988578,   0.000000000000000 ]
- [    0.000000000000000,   0.000000000000000,   8.511112930988579 ]
atoms:
- symbol: Mg # 1
  position: [   0.00000000000000,  0.00000000000000,  0.00000000000000 ]
- symbol: Mg # 2
  position: [   0.50000000000000,  0.00000000000000,  0.00000000000000 ]
- symbol: Mg # 3
  position: [   0.00000000000000,  0.50000000000000,  0.00000000000000 ]
- symbol: Mg # 4
  position: [   0.50000000000000,  0.50000000000000,  0.00000000000000 ]
- symbol: Mg # 5
  position: [   0.00000000000000,  0.00000000000000,  0.50000000000000 ]
- symbol: Mg # 6
  position: [   0.50000000000000,  0.00000000000000,  0.50000000000000 ]
- symbol: Mg # 7
  position: [   0.00000000000000,  0.50000000000000,  0.50000000000000 ]
- symbol: Mg # 8
  position: [   0.50000000000000,  0.50000000000000,  0.50000000000000 ]
- symbol: Mg # 9
  position: [   0.00000000000000,  0.25000000000000,  0.25000000000000 ]
- symbol: Mg # 10
  position: [   0.50000000000000,  0.25000000000000,  0.25000000000000 ]
- symbol: Mg # 11
  position: [   0.00000000000000,  0.75000000000000,  0.25000000000000 ]
- symbol: Mg # 12
  position: [   0.50000000000000,  0.75000000000000,  0.25000000000000 ]
- symbol: Mg # 13
  position: [   0.00000000000000,  0.25000000000000,  0.75000000000000 ]
- symbol: Mg # 14
  position: [   0.50000000000000,  0.25000000000000,  0.75000000000000 ]
- symbol: Mg # 15
  position: [   0.00000000000000,  0.75000000000000,  0.75000000000000 ]
- symbol: Mg # 16
  position: [   0.50000000000000,  0.75000000000000,  0.75000000000000 ]
- symbol: Mg # 17
  position: [   0.25000000000000,  0.00000000000000,  0.25000000000000 ]
- symbol: Mg # 18
  position: [   0.75000000000000,  0.00000000000000,  0.25000000000000 ]
- symbol: Mg # 19
  position: [   0.25000000000000,  0.50000000000000,  0.25000000000000 ]
- symbol: Mg # 20
  position: [   0.75000000000000,  0.50000000000000,  0.25000000000000 ]
- symbol: Mg # 21
  position: [   0.25000000000000,  0.00000000000000,  0.75000000000000 ]
- symbol: Mg # 22
  position: [   0.75000000000000,  0.00000000000000,  0.75000000000000 ]
- symbol: Mg # 23
  position: [   0.25000000000000,  0.50000000000000,  0.75000000000000 ]
- symbol: Mg # 24
  position: [   0.75000000000000,  0.50000000000000,  0.75000000000000 ]
- symbol: Mg # 25
  position: [   0.25000000000000,  0.25000000000000,  0.00000000000000 ]
- symbol: Mg # 26
  position: [   0.75000000000000,  0.25000000000000,  0.00000000000000 ]
- symbol: Mg # 27
  position: [   0.25000000000000,  0.75000000000000,  0.00000000000000 ]
- symbol: Mg # 28
  position: [   0.75000000000000,  0.75000000000000,  0.00000000000000 ]
- symbol: Mg # 29
  position: [   0.25000000000000,  0.25000000000000,  0.50000000000000 ]
- symbol: Mg # 30
  position: [   0.75000000000000,  0.25000000000000,  0.50000000000000 ]
- symbol: Mg # 31
  position: [   0.25000000000000,  0.75000000000000,  0.50000000000000 ]
- symbol: Mg # 32
  position: [   0.75000000000000,  0.75000000000000,  0.50000000000000 ]
- symbol: O  # 33
  position: [   0.25000000000000,  0.25000000000000,  0.25000000000000 ]
- symbol: O  # 34
  position: [   0.75000000000000,  0.25000000000000,  0.25000000000000 ]
- symbol: O  # 35
  position: [   0.25000000000000,  0.75000000000000,  0.25000000000000 ]
- symbol: O  # 36
  position: [   0.75000000000000,  0.75000000000000,  0.25000000000000 ]
- symbol: O  # 37
  position: [   0.25000000000000,  0.25000000000000,  0.75000000000000 ]
- symbol: O  # 38
  position: [   0.75000000000000,  0.25000000000000,  0.75000000000000 ]
- symbol: O  # 39
  position: [   0.25000000000000,  0.75000000000000,  0.75000000000000 ]
- symbol: O  # 40
  position: [   0.75000000000000,  0.75000000000000,  0.75000000000000 ]
- symbol: O  # 41
  position: [   0.25000000000000,  0.00000000000000,  0.00000000000000 ]
- symbol: O  # 42
  position: [   0.75000000000000,  0.00000000000000,  0.00000000000000 ]
- symbol: O  # 43
  position: [   0.25000000000000,  0.50000000000000,  0.00000000000000 ]
- symbol: O  # 44
  position: [   0.75000000000000,  0.50000000000000,  0.00000000000000 ]
- symbol: O  # 45
  position: [   0.25000000000000,  0.00000000000000,  0.50000000000000 ]
- symbol: O  # 46
  position: [   0.75000000000000,  0.00000000000000,  0.50000000000000 ]
- symbol: O  # 47
  position: [   0.25000000000000,  0.50000000000000,  0.50000000000000 ]
- symbol: O  # 48
  position: [   0.75000000000000,  0.50000000000000,  0.50000000000000 ]
- symbol: O  # 49
  position: [   0.00000000000000,  0.25000000000000,  0.00000000000000 ]
- symbol: O  # 50
  position: [   0.50000000000000,  0.25000000000000,  0.00000000000000 ]
- symbol: O  # 51
  position: [   0.00000000000000,  0.75000000000000,  0.00000000000000 ]
- symbol: O  # 52
  position: [   0.50000000000000,  0.75000000000000,  0.00000000000000 ]
- symbol: O  # 53
  position: [   0.00000000000000,  0.25000000000000,  0.50000000000000 ]
- symbol: O  # 54
  position: [   0.50000000000000,  0.25000000000000,  0.50000000000000 ]
- symbol: O  # 55
  position: [   0.00000000000000,  0.75000000000000,  0.50000000000000 ]
- symbol: O  # 56
  position: [   0.50000000000000,  0.75000000000000,  0.50000000000000 ]
- symbol: O  # 57
  position: [   0.00000000000000,  0.00000000000000,  0.25000000000000 ]
- symbol: O  # 58
  position: [   0.50000000000000,  0.00000000000000,  0.25000000000000 ]
- symbol: O  # 59
  position: [   0.00000000000000,  0.50000000000000,  0.25000000000000 ]
- symbol: O  # 60
  position: [   0.50000000000000,  0.50000000000000,  0.25000000000000 ]
- symbol: O  # 61
  position: [   0.00000000000000,  0.00000000000000,  0.75000000000000 ]
- symbol: O  # 62
  position: [   0.50000000000000,  0.00000000000000,  0.75000000000000 ]
- symbol: O  # 63
  position: [   0.00000000000000,  0.50000000000000,  0.75000000000000 ]
- symbol: O  # 64
  position: [   0.50000000000000,  0.50000000000000,  0.75000000000000 ]
