64
2

1
  0.0100000000000000   0.0000000000000000   0.0000000000000000
  -0.1088198900    0.0000000000    0.0000000000
   0.0156863000    0.0000000000    0.0000000000
  -0.0000352500    0.0000000000    0.0000000000
   0.0006305100    0.0000000000    0.0000000000
  -0.0000352500    0.0000000000    0.0000000000
   0.0006305100    0.0000000000    0.0000000000
  -0.0011054800    0.0000000000    0.0000000000
   0.0011408000    0.0000000000    0.0000000000
  -0.0044795200   -0.0000258000   -0.0000258000
   0.0027197700    0.0000014500    0.0000014500
  -0.0044795200    0.0000258000   -0.0000258000
   0.0027197700   -0.0000014500    0.0000014500
  -0.0044795200   -0.0000258000    0.0000258000
   0.0027197700    0.0000014500   -0.0000014500
  -0.0044795200    0.0000258000    0.0000258000
   0.0027197700   -0.0000014500   -0.0000014500
   0.0062002400    0.0000000000    0.0154968700
   0.0061531200    0.0000000000   -0.0153521200
  -0.0000368000    0.0000000000   -0.0003036700
  -0.0000292400    0.0000000000    0.0002990600
   0.0062002400    0.0000000000   -0.0154968700
   0.0061531200    0.0000000000    0.0153521200
  -0.0000368000    0.0000000000    0.0003036700
  -0.0000292400    0.0000000000   -0.0002990600
   0.0062002400    0.0154968700    0.0000000000
   0.0061531200   -0.0153521200    0.0000000000
   0.0062002400   -0.0154968700    0.0000000000
   0.0061531200    0.0153521200    0.0000000000
  -0.0000368000   -0.0003036700    0.0000000000
  -0.0000292400    0.0002990600    0.0000000000
  -0.0000368000    0.0003036700    0.0000000000
  -0.0000292400   -0.0002990600    0.0000000000
  -0.0003027800   -0.0025970700   -0.0025970700
  -0.0003166700    0.0025817700    0.0025817700
  -0.0003027800    0.0025970700   -0.0025970700
  -0.0003166700   -0.0025817700    0.0025817700
  -0.0003027800   -0.0025970700    0.0025970700
  -0.0003166700    0.0025817700   -0.0025817700
  -0.0003027800    0.0025970700    0.0025970700
  -0.0003166700   -0.0025817700   -0.0025817700
   0.0120130500    0.0000000000    0.0000000000
   0.0099366300    0.0000000000    0.0000000000
   0.0004737700    0.0000000000    0.0000000000
   0.0004561400    0.0000000000    0.0000000000
   0.0004737700    0.0000000000    0.0000000000
   0.0004561400    0.0000000000    0.0000000000
   0.0000247500    0.0000000000    0.0000000000
   0.0000175600    0.0000000000    0.0000000000
   0.0130784500   -0.0000492300    0.0000000000
  -0.0058480900    0.0000004400    0.0000000000
   0.0130784500    0.0000492300    0.0000000000
  -0.0058480900   -0.0000004400    0.0000000000
   0.0012923900    0.0000070500    0.0000000000
  -0.0014169000    0.0000003800    0.0000000000
   0.0012923900   -0.0000070500    0.0000000000
  -0.0014169000   -0.0000003800    0.0000000000
   0.0130784500    0.0000000000   -0.0000492300
  -0.0058480900    0.0000000000    0.0000004400
   0.0012923900    0.0000000000    0.0000070500
  -0.0014169000    0.0000000000    0.0000003800
   0.0130784500    0.0000000000    0.0000492300
  -0.0058480900    0.0000000000   -0.0000004400
   0.0012923900    0.0000000000   -0.0000070500
  -0.0014169000    0.0000000000   -0.0000003800

33
  0.0100000000000000   0.0000000000000000   0.0000000000000000
  -0.0003358000   -0.0025844000   -0.0025844000
  -0.0003213600    0.0025938900    0.0025938900
  -0.0003358000    0.0025844000   -0.0025844000
  -0.0003213600   -0.0025938900    0.0025938900
  -0.0003358000   -0.0025844000    0.0025844000
  -0.0003213600    0.0025938900   -0.0025938900
  -0.0003358000    0.0025844000    0.0025844000
  -0.0003213600   -0.0025938900   -0.0025938900
   0.0099614500    0.0000000000    0.0000000000
   0.0119517100    0.0000000000    0.0000000000
   0.0004415000    0.0000000000    0.0000000000
   0.0004518500    0.0000000000    0.0000000000
   0.0004415000    0.0000000000    0.0000000000
   0.0004518500    0.0000000000    0.0000000000
  -0.0000010900    0.0000000000    0.0000000000
   0.0000068000    0.0000000000    0.0000000000
   0.0130611100    0.0000167900    0.0000000000
  -0.0058664500    0.0000038700    0.0000000000
   0.0130611100   -0.0000167900    0.0000000000
  -0.0058664500   -0.0000038700    0.0000000000
   0.0012740000    0.0000022900    0.0000000000
  -0.0014349700    0.0000020600    0.0000000000
   0.0012740000   -0.0000022900    0.0000000000
  -0.0014349700   -0.0000020600    0.0000000000
   0.0130611100    0.0000000000    0.0000167900
  -0.0058664500    0.0000000000    0.0000038700
   0.0012740000    0.0000000000    0.0000022900
  -0.0014349700    0.0000000000    0.0000020600
   0.0130611100    0.0000000000   -0.0000167900
  -0.0058664500    0.0000000000   -0.0000038700
   0.0012740000    0.0000000000   -0.0000022900
  -0.0014349700    0.0000000000   -0.0000020600
  -0.1112493000    0.0000000000    0.0000000000
   0.0066703000    0.0000000000    0.0000000000
  -0.0030338100    0.0000000000    0.0000000000
   0.0043827300    0.0000000000    0.0000000000
  -0.0030338100    0.0000000000    0.0000000000
   0.0043827300    0.0000000000    0.0000000000
  -0.0010215800    0.0000000000    0.0000000000
   0.0010409800    0.0000000000    0.0000000000
  -0.0043131000    0.0000185100    0.0000185100
   0.0031230100   -0.0000026400   -0.0000026400
  -0.0043131000   -0.0000185100    0.0000185100
   0.0031230100    0.0000026400   -0.0000026400
  -0.0043131000    0.0000185100   -0.0000185100
   0.0031230100   -0.0000026400    0.0000026400
  -0.0043131000   -0.0000185100   -0.0000185100
   0.0031230100    0.0000026400    0.0000026400
   0.0072840800    0.0000000000    0.0101959800
   0.0073169900    0.0000000000   -0.0102886900
  -0.0001182900    0.0000000000    0.0011847700
  -0.0001301700    0.0000000000   -0.0011916700
   0.0072840800    0.0000000000   -0.0101959800
   0.0073169900    0.0000000000    0.0102886900
  -0.0001182900    0.0000000000   -0.0011847700
  -0.0001301700    0.0000000000    0.0011916700
   0.0072840800    0.0101959800    0.0000000000
   0.0073169900   -0.0102886900    0.0000000000
   0.0072840800   -0.0101959800    0.0000000000
   0.0073169900    0.0102886900    0.0000000000
  -0.0001182900    0.0011847700    0.0000000000
  -0.0001301700   -0.0011916700    0.0000000000
  -0.0001182900   -0.0011847700    0.0000000000
  -0.0001301700    0.0011916700    0.0000000000
