# epsilon and Z* of atoms 1 3
   3.2605670   0.0000000   0.0000000   0.0000000   3.2605670   0.0000000   0.0000000   0.0000000   3.4421330
   3.7561900   0.3020100   0.0000000   0.3020100   3.7561900   0.0000000   0.0000000   0.0000000   3.9968733
  -1.8780950  -0.5270900   0.0000000  -0.5270900  -1.8780950   0.0000000   0.0000000   0.0000000  -1.9984367
