14.400 
3.269 0.000 0.000  0.000 3.269 0.000   0.000 0.000 3.450
3.76087 0.29791 0.00000  0.33513 3.76241 0.00000  0.00000 0.00000 4.01351
-1.87320 -0.52560 0.00000   -0.52895 -1.87175 0.00000   0.00004 0.00004 -2.00226
