natom:   48
lattice:
- [    8.0888962391,   0.0000000000,   0.0000000000 ]
- [    0.0000000000,   8.0888962391,   0.0000000000 ]
- [    0.0000000000,   0.0000000000,   5.2423359774 ]
displacements:
- atom:    1
  displacement:
    [   0.0083917510496061,  0.0000000000000000,  0.0054386132719136 ]
- atom:   17
  displacement:
    [   0.0083917510496061,  0.0000000000000000,  0.0054386132719136 ]
- atom:   17
  displacement:
    [  -0.0083917510496061,  0.0000000000000000, -0.0054386132719136 ]
