48
3

1
  0.0083917510496061   0.0000000000000000   0.0054386132719136
  -0.3006871000    0.0014419000   -0.2567419900
   0.0321382000    0.0013891400   -0.0011799700
  -0.0205647700    0.0013884700   -0.0011798800
   0.0147663800    0.0039096200   -0.0002759300
  -0.0738046600    0.0348332000    0.1015241900
   0.0212893400   -0.0023517600    0.0010969100
  -0.0191171600   -0.0023519600    0.0010968100
   0.0110553900    0.0007108900    0.0001927800
   0.0214032700    0.0248819800    0.0226647800
   0.0027598100   -0.0060526800   -0.0061573200
   0.0319129000   -0.0353909000    0.0065447800
   0.0131863100    0.0165391300   -0.0224618300
   0.0131660800    0.0165768600   -0.0223986500
   0.0318732700   -0.0351581500    0.0063560800
   0.0025578100   -0.0060266900   -0.0062484100
   0.0213492800    0.0246348500    0.0226908400
   0.0499304500    0.0323009600    0.0161271000
  -0.0102359100    0.0019794400    0.0057012800
   0.0031969500    0.0070514100    0.0057472100
  -0.0114876500   -0.0096577300   -0.0003107400
   0.0079112700   -0.0046402700   -0.0091004200
  -0.0079736600   -0.0000880800   -0.0064581700
   0.0008321300    0.0081547500   -0.0064757400
  -0.0034813800   -0.0023432800    0.0000437000
  -0.0113216500   -0.0095112800   -0.0003122700
   0.0032371800    0.0071005800    0.0056999700
  -0.0101895800    0.0021099800    0.0057451800
   0.0481844900    0.0302320500    0.0163205300
  -0.0034139700   -0.0022930000    0.0000429800
   0.0008938500    0.0082962800   -0.0064599400
  -0.0078075400    0.0000106900   -0.0064772000
   0.0079880900   -0.0045626100   -0.0090919400
   0.0080148300   -0.0077668100   -0.0037482100
  -0.0057593000    0.0022138300    0.0003600500
   0.0578988100   -0.0366814500    0.0608354900
  -0.0125512000    0.0036975600    0.0035357200
   0.0094038100   -0.0070815300    0.0040111000
  -0.0055777400    0.0020325400   -0.0003874600
   0.0333970300   -0.0119096600    0.0130961400
  -0.0132353500    0.0023116500   -0.0032756400
  -0.0133200800    0.0023646500   -0.0032975100
   0.0337215100   -0.0122363000    0.0124866600
  -0.0056463500    0.0021158900   -0.0003851800
   0.0093278600   -0.0069827900    0.0039997800
  -0.0126074200    0.0037484300    0.0035533400
   0.0552702600   -0.0335470600    0.0563388500
  -0.0058292800    0.0022992900    0.0003588700
   0.0079452100   -0.0076920000   -0.0037467200

17
  0.0083917510496061   0.0000000000000000   0.0054386132719136
   0.0481895300    0.0300753500    0.0164522500
  -0.0101918800    0.0070846900    0.0057925900
   0.0031881900    0.0020607200    0.0057354200
  -0.0113951700   -0.0095748400   -0.0003164300
   0.0079122900   -0.0045716600   -0.0090768600
  -0.0078772400    0.0082388000   -0.0065408900
   0.0008223400   -0.0000285000   -0.0064783200
  -0.0034401000   -0.0023213900    0.0000463200
   0.0611084200    0.0400345700    0.0557514900
  -0.0107304300    0.0048665600    0.0006647800
   0.0061823200   -0.0008180000   -0.0009387400
  -0.0054723600   -0.0019129400   -0.0001553600
   0.0301497600    0.0086177900    0.0181734900
  -0.0151228000    0.0098549200   -0.0004095700
   0.0111986300   -0.0052464000    0.0011961200
  -0.0059495600   -0.0023983000    0.0001286400
  -0.2457196600   -0.1295501200   -0.1655371200
   0.0062351700    0.0007954800   -0.0014759100
  -0.0021877000    0.0007865200   -0.0014707900
   0.0024694800    0.0011987500   -0.0003495100
  -0.0082971100   -0.0038627100    0.0283773400
   0.0103600000    0.0009966100    0.0027194300
  -0.0024235600    0.0009756600    0.0027086700
   0.0024099900    0.0013432600    0.0002924500
   0.0382666700    0.0451366700   -0.0035231000
   0.0037204100   -0.0031881100   -0.0013157400
  -0.0023452900   -0.0032209200   -0.0013260400
   0.0036910200    0.0038619700   -0.0013487700
  -0.0018658800    0.0009379300    0.0019348900
   0.0017600300   -0.0020925400    0.0012904200
  -0.0032620500   -0.0021137500    0.0013015600
   0.0034473000    0.0044295900    0.0016554000
  -0.0076288200    0.0071468400    0.0042346300
   0.0041558300   -0.0005895200    0.0014253500
  -0.0062708400   -0.0035899000    0.0021686100
   0.0052586700   -0.0041954500   -0.0002506500
  -0.0012694000   -0.0176280600    0.0098732800
   0.0044057900   -0.0005736100   -0.0015431200
  -0.0026388700    0.0220041600    0.0119247500
   0.0033085600   -0.0016019700    0.0001323200
   0.0370616800   -0.0125286200    0.0272135800
   0.0113284600    0.0034053400   -0.0120782200
  -0.0002030800    0.0027739200    0.0019240700
  -0.0014582900    0.0015379700   -0.0000426600
   0.0116469300   -0.0060747000   -0.0127465300
   0.0365506900    0.0068824100    0.0259200300
  -0.0001853000    0.0030230500   -0.0020407200
   0.0011072100   -0.0003875400   -0.0000728300

17
 -0.0083917510496061   0.0000000000000000  -0.0054386132719136
  -0.0499209600   -0.0324577400   -0.0159920200
   0.0102308900   -0.0070671300   -0.0056588000
  -0.0032490000   -0.0020283300   -0.0057150100
   0.0114153000    0.0095926600    0.0003072900
  -0.0079912700    0.0046318700    0.0091135700
   0.0079019500   -0.0082120900    0.0063974600
  -0.0008972200    0.0000482800    0.0064590900
   0.0034474900    0.0023131000   -0.0000449000
  -0.0586998500   -0.0368363300   -0.0511745500
   0.0107000200   -0.0048725300   -0.0006700100
  -0.0061414900    0.0008160200    0.0009379700
   0.0054503700    0.0019342400    0.0001523500
  -0.0303247600   -0.0088842000   -0.0176643600
   0.0151606100   -0.0099316600    0.0004068900
  -0.0111724800    0.0052405400   -0.0011988900
   0.0059398000    0.0024162900   -0.0001260000
   0.2447174700    0.1289152400    0.1602146900
  -0.0063090200   -0.0008606400    0.0014694700
   0.0021079400   -0.0008690700    0.0014734500
  -0.0025351700   -0.0012711800    0.0003446900
   0.0082332100    0.0037924900   -0.0284087900
  -0.0104263800   -0.0010495400   -0.0027073100
   0.0023342500   -0.0010714500   -0.0027172700
  -0.0024742900   -0.0014134100   -0.0002878100
  -0.0377999400   -0.0444046700    0.0033568400
  -0.0036812700    0.0033142500    0.0013223700
   0.0024024000    0.0032806900    0.0013124200
  -0.0036156800   -0.0038071800    0.0013523900
   0.0019146900   -0.0008576800   -0.0019037300
  -0.0016639200    0.0021906700   -0.0012975700
   0.0033129600    0.0021707800   -0.0012868100
  -0.0033615100   -0.0043754000   -0.0016560200
   0.0077137900   -0.0073553800   -0.0043682600
  -0.0040902300    0.0005244400   -0.0014208500
   0.0063498200    0.0035444500   -0.0022327100
  -0.0051530600    0.0040773100    0.0002435700
   0.0014602600    0.0175731100   -0.0097881700
  -0.0043317200    0.0005063400    0.0015336900
   0.0028152600   -0.0222401600   -0.0119386300
  -0.0032641200    0.0015490200   -0.0001313500
  -0.0361906900    0.0123369300   -0.0265650800
  -0.0113730900   -0.0033598900    0.0121368500
   0.0001213300   -0.0026905000   -0.0019121000
   0.0014087200   -0.0014772200    0.0000458100
  -0.0118900700    0.0061743600    0.0127580400
  -0.0375397600   -0.0070520800   -0.0265670900
   0.0001046500   -0.0029328900    0.0020260100
  -0.0011462400    0.0004352700    0.0000692000
