  MPI-parallelism will be employed.
  MPI-parallelism will be employed.
  MPI-parallelism will be employed.
  MPI-parallelism will be employed.
  MPI-parallelism will be employed.
  MPI-parallelism will be employed.
  MPI-parallelism will be employed.
  MPI-parallelism will be employed.
  MPI-parallelism will be employed.
  MPI-parallelism will be employed.
  MPI-parallelism will be employed.
  MPI-parallelism will be employed.
  MPI-parallelism will be employed.
  MPI-parallelism will be employed.
  MPI-parallelism will be employed.
  MPI-parallelism will be employed.
------------------------------------------------------------
          Invoking FHI-aims ...
          Version workshop
          Compiled on 2009/06/20 at 17:37:41

          When using FHI-aims, please cite the following reference:

          Volker Blum, Ralf Gehrke, Felix Hanke, Paula Havu,
          Ville Havu, Xinguo Ren, Karsten Reuter, and Matthias Scheffler,
          'Ab Initio Molecular Simulations with Numeric Atom-Centered Orbitals: FHI-aims',
          Computer Physics Communications [volume], [page] (2008).

------------------------------------------------------------

  Date     :  20090924, Time     :  083612.240
  Time zero on CPU 1             :   0.400000000000000E-01  s.
  Internal wall clock time zero  :            23013372.240  s.

  Using       16 parallel tasks.
  Task        0 on host thp510 reporting.
  Task        1 on host thp510 reporting.
  Task        2 on host thp510 reporting.
  Task        3 on host thp510 reporting.
  Task        4 on host thp510 reporting.
  Task        5 on host thp510 reporting.
  Task        6 on host thp510 reporting.
  Task        7 on host thp510 reporting.
  Task        8 on host thp510 reporting.
  Task        9 on host thp510 reporting.
  Task       10 on host thp510 reporting.
  Task       11 on host thp510 reporting.
  Task       12 on host thp510 reporting.
  Task       13 on host thp510 reporting.
  Task       14 on host thp510 reporting.
  Task       15 on host thp510 reporting.
  Obtaining array dimensions for all initial allocations:
  Parsing control.in ...
  Parsing geometry.in ...
 
  Basic array size parameters: 
  | Number of species                 :        1
  | Number of atoms                   :       54
  | Number of lattice vectors         :        3
  | Max. basis fn. angular momentum   :        2
  | Max. atomic/ionic basis occupied n:        3
  | Max. number of basis fn. types    :        3
  | Max. radial fns per species/type  :        5
  | Max. logarithmic grid size        :     1346
  | Max. radial integration grid size :       42
  | Max. angular integration grid size:      302
  | Max. angular grid division number :        8
  | Radial grid for Hartree potential :     1346
  | Number of spin channels           :        1

------------------------------------------------------------
          Reading file control.in.
------------------------------------------------------------
  XC: Using Perdew-Wang parametrisation of Ceperley-Alder LDA.
  Found k-point grid:         4         4         4
  Kohn-Sham eigenvalues and eigenfunctions calculated by modified ScaLAPACK (scalapack_fast).
  Convergence accuracy of self-consistent charge density: 0.1000E-05
  Convergence accuracy of sum of eigenvalues: 0.1000E-03
  Convergence accuracy of total energy: 0.1000E-05
  Convergence accuracy of forces: 0.1000E-04
 
  Reading configuration options for species Si                  .
  | Found nuclear charge :  14
  | Found atomic mass :  28.0854999999999997 amu
  | Found l_max for Hartree potential  :   4
  | Found cutoff potl. onset [A], width [A], scale factor :    3.50000    1.50000    1.00000
  | Threshold for basis-dependent cutoff potential is   0.100000E-03
  | Found data for basic radial integration grid :    42 points, outermost radius =    5.000 A
  | Found multiplier for basic radial grid :   1
  | Found angular grid specification: user-specified.
  | Specified grid contains     5 separate shells.
  | Check grid settings after all constraints further below.
  | Found free-atom valence shell :  3 s   2.000
  | Found free-atom valence shell :  3 p   2.000
  | Found free-ion valence shell :  3 s   1.000
  | Found free-ion valence shell :  3 p   1.000
  | Found hydrogenic basis function :  3 d   4.200
  | Found hydrogenic basis function :  2 p   1.400
  | Found ionic basis function :  3 s , default cutoff radius.
  Species Si                  : Missing cutoff potential type.
  Defaulting to exp(1/x)/(1-x)^2 type cutoff potential.
  Species Si: No 'logarithmic' tag. Using default grid for free atom:
  | Default logarithmic grid data [bohr] : 0.1000E-03 0.1000E+03 0.1012E+01
  | Will include ionic basis functions of  2.0-fold positive Si                   ion.
  Species Si: On-site basis accuracy parameter (for Gram-Schmidt orthonormalisation) not specified.
  Using default value basis_acc =  0.1000000E-03.
  Species Si                  : Using default innermost maximum threshold i_radial=  2 for radial functions.
  Species Si                  : Default cutoff onset for free atom density etc. : 0.35000000E+01 AA.
  Species Si                  : Basic radial grid will be enhanced according to radial_multiplier =   1, to contain    42 grid points.
 
  Input file control.in ends. 
  Target number of points in a grid batch is not set. Defaulting to  100
  Method for grid partitioning is not set. Defaulting to parallel hash+maxmin partitioning.
  Batch size limit is not set. Defaulting to    200
  By default, will store active basis functions for each batch.
  If in need of memory, prune_basis_once .false. can be used to disable this option.
  Defaulting to Pulay charge density mixer.
  Pulay mixer: Number of relevant iterations not set.
  Defaulting to    8 iterations.
  Pulay mixer: Number of initial linear mixing iterations not set.
  Defaulting to    0 iterations.
  Work space size for distributed Hartree potential not set.
  Defaulting to   0.200000E+03 MB.
  Mixing parameter for charge density mixing has not been set.
  Using default: charge_mix_param =     0.6000.
  Algorithm-dependent basis array size parameters:
  | n_max_pulay                         :        8
  Maximum number of self-consistency iterations not provided.
  Presetting  1000 iterations.
  Geometry relaxation not requested: no relaxation will be performed.
  Handling of forces: Unphysical translation and rotation will be removed from forces.
  No accuracy limit for integral partition fn. given. Defaulting to 0.1000E-14.
  No threshold value for u(r) in integrations given. Defaulting to 0.1000E-05.
  No occupation type (smearing scheme) given. Defaulting to Gaussian broadening, width = 0.1000E-01 eV.
  No accuracy for occupation numbers given. Defaulting to 0.1000E-07.
  No threshold value for occupation numbers given. Defaulting to 0.0000E+00.
  No accuracy for fermi level given. Defaulting to 0.1000E-19.
  Maximum # of iterations to find E_F not set. Defaulting to  200.
  Threshold for basis singularities not set.
  Default threshold for basis singularities: 0.1000E-04
 * You have    64 k-points in your system, but only    16 MPI-tasks available.
 * In this case using ScaLAPACK is not necessary / supported.
 * Switching to default eigenvalue solver (lapack) instead.
  Partitioning for integrals was not defined. Using the partition function of Stratmann and coworkers.
  Partitioning for Hartree potential was not defined. Using partition_type for integrals.
  Spin handling was not defined in control.in. Defaulting to unpolarized case.
  No q(lm)/r^(l+1) cutoff set for long-range Hartree potential.
  | Using default value of  0.100000E-09 .
  | Verify using the multipole_threshold keyword.
  Using density matrix based charge density update.
  Using packed matrix style: index .
------------------------------------------------------------


------------------------------------------------------------
          Reading geometry description geometry.in.
------------------------------------------------------------
 * Warning! You did not set the 'relativistic' flag in input file 'control.in'.
 * Since you are not attempting to treat any elements beyond Ca(Z=20), FHI-aims
 * will default to 'relativistic none'.
 * You must ensure that this is really what you want!!
 * For example, DO NOT compute total-energy differences between results from
 * different settings of the 'relativistic' flag.
  Input structure read successfully. 
  The structure contains   54 atoms,  and a total of    756.000 electrons.
 
  Input geometry:
  | Unit cell: 
  |         0.000000         8.130000         8.130000
  |         8.130000         0.000000         8.130000
  |         8.130000         8.130000         0.000000
  | Atomic structure: 
  |       Atom                x [A]            y [A]            z [A]
  |    1: Species Si         0.000000         0.007071         0.007071
  |    2: Species Si         0.000000         2.710000         2.710000
  |    3: Species Si         0.000000         5.420000         5.420000
  |    4: Species Si         2.710000         0.000000         2.710000
  |    5: Species Si         2.710000         2.710000         5.420000
  |    6: Species Si         2.710000         5.420000         8.130000
  |    7: Species Si         5.420000         0.000000         5.420000
  |    8: Species Si         5.420000         2.710000         8.130000
  |    9: Species Si         5.420000         5.420000        10.840000
  |   10: Species Si         2.710000         2.710000         0.000000
  |   11: Species Si         2.710000         5.420000         2.710000
  |   12: Species Si         2.710000         8.130000         5.420000
  |   13: Species Si         5.420000         2.710000         2.710000
  |   14: Species Si         5.420000         5.420000         5.420000
  |   15: Species Si         5.420000         8.130000         8.130000
  |   16: Species Si         8.130000         2.710000         5.420000
  |   17: Species Si         8.130000         5.420000         8.130000
  |   18: Species Si         8.130000         8.130000        10.840000
  |   19: Species Si         5.420000         5.420000         0.000000
  |   20: Species Si         5.420000         8.130000         2.710000
  |   21: Species Si         5.420000        10.840000         5.420000
  |   22: Species Si         8.130000         5.420000         2.710000
  |   23: Species Si         8.130000         8.130000         5.420000
  |   24: Species Si         8.130000        10.840000         8.130000
  |   25: Species Si        10.840000         5.420000         5.420000
  |   26: Species Si        10.840000         8.130000         8.130000
  |   27: Species Si        10.840000        10.840000        10.840000
  |   28: Species Si         1.355000         1.355000         1.355000
  |   29: Species Si         1.355000         4.065000         4.065000
  |   30: Species Si         1.355000         6.775000         6.775000
  |   31: Species Si         4.065000         1.355000         4.065000
  |   32: Species Si         4.065000         4.065000         6.775000
  |   33: Species Si         4.065000         6.775000         9.485000
  |   34: Species Si         6.775000         1.355000         6.775000
  |   35: Species Si         6.775000         4.065000         9.485000
  |   36: Species Si         6.775000         6.775000        12.195000
  |   37: Species Si         4.065000         4.065000         1.355000
  |   38: Species Si         4.065000         6.775000         4.065000
  |   39: Species Si         4.065000         9.485000         6.775000
  |   40: Species Si         6.775000         4.065000         4.065000
  |   41: Species Si         6.775000         6.775000         6.775000
  |   42: Species Si         6.775000         9.485000         9.485000
  |   43: Species Si         9.485000         4.065000         6.775000
  |   44: Species Si         9.485000         6.775000         9.485000
  |   45: Species Si         9.485000         9.485000        12.195000
  |   46: Species Si         6.775000         6.775000         1.355000
  |   47: Species Si         6.775000         9.485000         4.065000
  |   48: Species Si         6.775000        12.195000         6.775000
  |   49: Species Si         9.485000         6.775000         4.065000
  |   50: Species Si         9.485000         9.485000         6.775000
  |   51: Species Si         9.485000        12.195000         9.485000
  |   52: Species Si        12.195000         6.775000         6.775000
  |   53: Species Si        12.195000         9.485000         9.485000
  |   54: Species Si        12.195000        12.195000        12.195000
 
  Structure-dependent array size parameters: 
  | Maximum number of distinct radial functions  :        8
  | Maximum number of basis functions            :      972
  | Number of Kohn-Sham states (occupied + empty):      513
------------------------------------------------------------
  | Super cell volume                              :   0.107474E+04  A^3
  | Reciprocial lattice vector 1: -0.386420  0.386420  0.386420
  | Reciprocial lattice vector 2:  0.386420 -0.386420  0.386420
  | Reciprocial lattice vector 3:  0.386420  0.386420 -0.386420

------------------------------------------------------------
          Preparing all fixed parts of the calculation.
------------------------------------------------------------
  Determining machine precision:
   0.222507385850720138E-307
  Setting up grids for atomic and cluster calculations.

  Creating wave function, potential, and density for free atoms.

  Species: Si

  List of occupied orbitals and eigenvalues:
    n    l      energy [Ha]    energy [eV]
    1    0       -65.172154     -1773.4245
    2    0        -5.063250      -137.7780
    3    0        -0.389854       -10.6085
    2    1        -3.503088       -95.3239
    3    1        -0.144317        -3.9271

  Creating fixed part of basis set: Ionic, confined, hydrogenic.
 
  Si                   ion:

  List of free ionic orbitals and eigenvalues:
    n    l      energy [Ha]    energy [eV]
    1    0       -66.042358     -1797.1040
    2    0        -5.909940      -160.8177
    3    0        -1.075552       -29.2673
    2    1        -4.350945      -118.3952
    3    1        -0.781825       -21.2745


  List of ionic basis orbitals and eigenvalues:
    n    l      energy [Ha]    energy [eV]    wfn radius [A]
    3    0        -1.075532       -29.2667       3.181181

 
  Si                   hydrogenic:
 
  List of hydrogenic basis orbitals: 
    n    l      effective z      eigenvalue [eV]  inner max. [A]     outer max. [A]     cutoff onset [A]   
    3    2         4.200000       -26.6624           1.139231           1.139231           3.500000
    2    1         1.400000        -6.4613           1.472672           1.472672           3.500000
 

  Adding cutoff potential to free-atom effective potential.
  Creating atomic-like basis functions for current effective potential.
  Assembling full basis from fixed parts.
  | Species Si :   atomic orbital   2 s accepted.
  | Species Si :   atomic orbital   3 s accepted.
  | Species Si :    ionic orbital   3 s accepted.
  | Species Si :   atomic orbital   1 s accepted.
  | Species Si :   atomic orbital   2 p accepted.
  | Species Si :   atomic orbital   3 p accepted.
  | Species Si :    hydro orbital   2 p accepted.
  | Species Si :    hydro orbital   3 d accepted.
 
  Basis size parameters after reduction:
  | Total number of radial functions:        8
  | Total number of basis functions :      972
 
  Preparing densities etc. for the partition functions (integrals / Hartree potential).

  Preparations completed.
  max(cpu_time)          :      0.450 s.
  Wall clock time (cpu1) :      0.454 s.
------------------------------------------------------------

------------------------------------------------------------
          Begin self-consistency loop: Initialization.

          Date     :  20090924, Time     :  083613.158
------------------------------------------------------------

  Initializing index lists of integration centers etc. from given atomic structure:
  Mapping all atomic coordinates to central Wigner-Seitz unit cell.
  | K-points in task   4:         4
  | K-points in task   6:         4

  Initializing the k-points
  | Number of k-points                             :        64
  | K-points in task   8:         4
  The eigenvectors in the calculations are COMPLEX.
  | K-points in task   0:         4
  | K-points in task   2:         4
  | K-points in task   3:         4
  | K-points in task   5:         4
  | K-points in task   7:         4
  | K-points in task   9:         4
  | K-points in task  10:         4
  | K-points in task  11:         4
  | K-points in task  12:         4
  | K-points in task  13:         4
  | K-points in task  14:         4
  | K-points in task   1:         4
  | K-points in task  15:         4
  | Number of basis functions in the Hamiltonian integrals :      6442
  | Number of basis functions in a single unit cell        :       972
  | Number of centers in hamiltonian partition_tab :        54
  | Number of centers in hartree potential         :      1300
  | Number of centers in hartree multipole         :       958
  | Number of centers in electron density summation:       730
  | Number of centers in basis integrals           :       796
  | Number of centers in integrals                 :       417
  | Number of super-cells :         28
  | Size of matrix packed + index : 1145479
  Partitioning the integration grid into batches with parallel hashing+maxmin method.
  | Number of batches:     3636
  | Maximal batch size:     119
  | Minimal batch size:      49
  | Average batch size:      83.228
  | Standard deviation of batch sizes:      12.724
 
  Integration load balanced across    16 MPI tasks. 
  Work distribution over tasks is as follows:
  Task     0 has      18912 integration points.
  Task     1 has      18936 integration points.
  Task     2 has      18878 integration points.
  Task     3 has      18930 integration points.
  Task     4 has      18918 integration points.
  Task     5 has      18929 integration points.
  Task     6 has      18914 integration points.
  Task     7 has      18910 integration points.
  Task     8 has      18912 integration points.
  Task     9 has      18917 integration points.
  Task    10 has      18945 integration points.
  Task    11 has      18937 integration points.
  Task    12 has      18878 integration points.
  Task    13 has      18879 integration points.
  Task    14 has      18911 integration points.
  Task    15 has      18910 integration points.
  Initializing partition tables, free-atom densities, potentials, etc.
  across the integration grid (initialize_grid_storage).
  | Net number of integration points:   302616
  | of which are non-zero points    :   263848
  | Average free-atom electrostatic potential              :    -13.24040855 eV
  Obtaining max. number of non-zero basis functions in each batch (get_n_compute_maxes).
  | Maximal number of non-zero basis functions:      500 in task     0
  For each atomic center, finding distance to closest integration grid point.
  | Maximal number of non-zero basis functions:      503 in task     1
  | Maximal number of non-zero basis functions:      504 in task     2
  | Maximal number of non-zero basis functions:      500 in task     3
  | Maximal number of non-zero basis functions:      484 in task     4
  | Maximal number of non-zero basis functions:      493 in task     5
  | Maximal number of non-zero basis functions:      480 in task     6
  | Maximal number of non-zero basis functions:      494 in task     7
  | Maximal number of non-zero basis functions:      484 in task     8
  | Maximal number of non-zero basis functions:      497 in task     9
  | Maximal number of non-zero basis functions:      493 in task    10
  | Maximal number of non-zero basis functions:      481 in task    11
  | Maximal number of non-zero basis functions:      504 in task    12
  | Maximal number of non-zero basis functions:      499 in task    13
  | Maximal number of non-zero basis functions:      500 in task    14
  | Maximal number of non-zero basis functions:      480 in task    15
  Integrating overlap matrix.
  Integrating Hamiltonian matrix: batch-based integration.
 Decreasing sparse matrix size
   Tolerance: 0.999999982451670044E-13
   Hamiltonian matrix
  | Array has  1025572 nonzero elements out of  1145479 elements
  | Sparsity factor is 0.105
   Overlap matrix
  | Array has   986900 nonzero elements out of  1145479 elements
  | Sparsity factor is 0.138
  New size of hamiltonian matrix:     1026107

  Updating Kohn-Sham eigenvalues, eigenvectors, occupation numbers, and Fermi level.
  Transforming overlap matrix and checking for singularities.
  Overlap matrix is nonsingular at first k-point:
  | Lowest eigenvalue:  0.634192E-03
  Determining occupation numbers for Kohn-Sham eigenstates.
  | Chemical potential (Fermi level) in eV                 : -.63059627E+01
  | Error in electron count due to remaining E_F inaccuracy: 0.00000000E+00

  Writing Kohn-Sham eigenvalues.
 K-point: 1

  State    Occupation    Eigenvalue [Ha]    Eigenvalue [eV]
      1       2.00000         -65.194629        -1774.03612
      2       2.00000         -65.194472        -1774.03186
      3       2.00000         -65.194470        -1774.03178
      4       2.00000         -65.194469        -1774.03178
      5       2.00000         -65.194469        -1774.03178
      6       2.00000         -65.194469        -1774.03178
      7       2.00000         -65.194469        -1774.03178
      8       2.00000         -65.194469        -1774.03177
      9       2.00000         -65.194469        -1774.03177
     10       2.00000         -65.194469        -1774.03177
     11       2.00000         -65.194469        -1774.03177
     12       2.00000         -65.194469        -1774.03177
     13       2.00000         -65.194469        -1774.03177
     14       2.00000         -65.194469        -1774.03177
     15       2.00000         -65.194469        -1774.03177
     16       2.00000         -65.194469        -1774.03177
     17       2.00000         -65.194469        -1774.03177
     18       2.00000         -65.194469        -1774.03177
     19       2.00000         -65.194469        -1774.03177
     20       2.00000         -65.194469        -1774.03177
     21       2.00000         -65.194469        -1774.03177
     22       2.00000         -65.194469        -1774.03177
     23       2.00000         -65.194469        -1774.03177
     24       2.00000         -65.194469        -1774.03177
     25       2.00000         -65.194469        -1774.03177
     26       2.00000         -65.194469        -1774.03177
     27       2.00000         -65.194469        -1774.03177
     28       2.00000         -65.194469        -1774.03177
     29       2.00000         -65.194469        -1774.03177
     30       2.00000         -65.194469        -1774.03177
     31       2.00000         -65.194469        -1774.03177
     32       2.00000         -65.194469        -1774.03177
     33       2.00000         -65.194469        -1774.03177
     34       2.00000         -65.194469        -1774.03177
     35       2.00000         -65.194469        -1774.03177
     36       2.00000         -65.194469        -1774.03177
     37       2.00000         -65.194469        -1774.03177
     38       2.00000         -65.194469        -1774.03177
     39       2.00000         -65.194469        -1774.03177
     40       2.00000         -65.194469        -1774.03177
     41       2.00000         -65.194469        -1774.03177
     42       2.00000         -65.194469        -1774.03177
     43       2.00000         -65.194469        -1774.03177
     44       2.00000         -65.194469        -1774.03177
     45       2.00000         -65.194469        -1774.03177
     46       2.00000         -65.194469        -1774.03177
     47       2.00000         -65.194469        -1774.03177
     48       2.00000         -65.194469        -1774.03177
     49       2.00000         -65.194469        -1774.03177
     50       2.00000         -65.194469        -1774.03177
     51       2.00000         -65.194469        -1774.03177
     52       2.00000         -65.194469        -1774.03176
     53       2.00000         -65.194469        -1774.03176
     54       2.00000         -65.194314        -1774.02753
     55       2.00000          -5.090598         -138.52221
     56       2.00000          -5.090529         -138.52035
     57       2.00000          -5.090482         -138.51907
     58       2.00000          -5.090482         -138.51906
     59       2.00000          -5.090482         -138.51906
     60       2.00000          -5.090482         -138.51906
     61       2.00000          -5.090482         -138.51906
     62       2.00000          -5.090482         -138.51906
     63       2.00000          -5.090475         -138.51887
     64       2.00000          -5.090467         -138.51867
     65       2.00000          -5.090456         -138.51836
     66       2.00000          -5.090456         -138.51836
     67       2.00000          -5.090456         -138.51836
     68       2.00000          -5.090456         -138.51836
     69       2.00000          -5.090447         -138.51812
     70       2.00000          -5.090435         -138.51779
     71       2.00000          -5.090417         -138.51728
     72       2.00000          -5.090416         -138.51727
     73       2.00000          -5.090416         -138.51727
     74       2.00000          -5.090416         -138.51727
     75       2.00000          -5.090416         -138.51727
     76       2.00000          -5.090416         -138.51727
     77       2.00000          -5.090416         -138.51727
     78       2.00000          -5.090416         -138.51727
     79       2.00000          -5.090416         -138.51726
     80       2.00000          -5.090416         -138.51726
     81       2.00000          -5.090390         -138.51657
     82       2.00000          -5.090362         -138.51579
     83       2.00000          -5.090336         -138.51509
     84       2.00000          -5.090336         -138.51508
     85       2.00000          -5.090336         -138.51508
     86       2.00000          -5.090336         -138.51508
     87       2.00000          -5.090336         -138.51508
     88       2.00000          -5.090336         -138.51508
     89       2.00000          -5.090336         -138.51508
     90       2.00000          -5.090335         -138.51508
     91       2.00000          -5.090335         -138.51508
     92       2.00000          -5.090335         -138.51507
     93       2.00000          -5.090316         -138.51455
     94       2.00000          -5.090304         -138.51422
     95       2.00000          -5.090295         -138.51398
     96       2.00000          -5.090295         -138.51398
     97       2.00000          -5.090295         -138.51398
     98       2.00000          -5.090295         -138.51398
     99       2.00000          -5.090284         -138.51367
    100       2.00000          -5.090276         -138.51347
    101       2.00000          -5.090269         -138.51328
    102       2.00000          -5.090269         -138.51328
    103       2.00000          -5.090269         -138.51327
    104       2.00000          -5.090269         -138.51327
    105       2.00000          -5.090269         -138.51327
    106       2.00000          -5.090269         -138.51327
    107       2.00000          -5.090221         -138.51197
    108       2.00000          -5.090159         -138.51027
    109       2.00000          -3.530539          -96.07085
    110       2.00000          -3.530493          -96.06959
    111       2.00000          -3.530492          -96.06957
    112       2.00000          -3.530446          -96.06833
    113       2.00000          -3.530446          -96.06833
    114       2.00000          -3.530446          -96.06833
    115       2.00000          -3.530446          -96.06833
    116       2.00000          -3.530446          -96.06833
    117       2.00000          -3.530446          -96.06832
    118       2.00000          -3.530445          -96.06830
    119       2.00000          -3.530442          -96.06822
    120       2.00000          -3.530441          -96.06818
    121       2.00000          -3.530436          -96.06806
    122       2.00000          -3.530435          -96.06803
    123       2.00000          -3.530431          -96.06792
    124       2.00000          -3.530420          -96.06761
    125       2.00000          -3.530419          -96.06760
    126       2.00000          -3.530419          -96.06760
    127       2.00000          -3.530419          -96.06760
    128       2.00000          -3.530419          -96.06760
    129       2.00000          -3.530419          -96.06760
    130       2.00000          -3.530418          -96.06757
    131       2.00000          -3.530418          -96.06756
    132       2.00000          -3.530418          -96.06756
    133       2.00000          -3.530418          -96.06756
    134       2.00000          -3.530418          -96.06756
    135       2.00000          -3.530417          -96.06754
    136       2.00000          -3.530417          -96.06754
    137       2.00000          -3.530417          -96.06752
    138       2.00000          -3.530417          -96.06752
    139       2.00000          -3.530417          -96.06752
    140       2.00000          -3.530417          -96.06752
    141       2.00000          -3.530416          -96.06750
    142       2.00000          -3.530407          -96.06727
    143       2.00000          -3.530404          -96.06719
    144       2.00000          -3.530402          -96.06714
    145       2.00000          -3.530391          -96.06683
    146       2.00000          -3.530390          -96.06681
    147       2.00000          -3.530388          -96.06676
    148       2.00000          -3.530383          -96.06660
    149       2.00000          -3.530382          -96.06658
    150       2.00000          -3.530382          -96.06658
    151       2.00000          -3.530382          -96.06658
    152       2.00000          -3.530382          -96.06658
    153       2.00000          -3.530382          -96.06658
    154       2.00000          -3.530382          -96.06658
    155       2.00000          -3.530382          -96.06658
    156       2.00000          -3.530382          -96.06658
    157       2.00000          -3.530381          -96.06656
    158       2.00000          -3.530365          -96.06611
    159       2.00000          -3.530364          -96.06610
    160       2.00000          -3.530357          -96.06591
    161       2.00000          -3.530344          -96.06556
    162       2.00000          -3.530341          -96.06547
    163       2.00000          -3.530335          -96.06529
    164       2.00000          -3.530302          -96.06442
    165       2.00000          -3.530301          -96.06437
    166       2.00000          -3.530296          -96.06425
    167       2.00000          -3.530296          -96.06424
    168       2.00000          -3.530296          -96.06424
    169       2.00000          -3.530293          -96.06415
    170       2.00000          -3.530286          -96.06397
    171       2.00000          -3.530274          -96.06365
    172       2.00000          -3.530187          -96.06127
    173       2.00000          -3.530186          -96.06126
    174       2.00000          -3.530183          -96.06115
    175       2.00000          -3.530181          -96.06112
    176       2.00000          -3.530176          -96.06099
    177       2.00000          -3.530173          -96.06089
    178       2.00000          -3.530139          -96.05998
    179       2.00000          -3.530138          -96.05993
    180       2.00000          -3.530134          -96.05984
    181       2.00000          -3.530130          -96.05973
    182       2.00000          -3.530129          -96.05971
    183       2.00000          -3.530129          -96.05970
    184       2.00000          -3.530129          -96.05970
    185       2.00000          -3.530129          -96.05970
    186       2.00000          -3.530129          -96.05970
    187       2.00000          -3.530116          -96.05934
    188       2.00000          -3.530115          -96.05933
    189       2.00000          -3.530111          -96.05921
    190       2.00000          -3.529919          -96.05399
    191       2.00000          -3.529919          -96.05399
    192       2.00000          -3.529918          -96.05396
    193       2.00000          -3.529906          -96.05362
    194       2.00000          -3.529906          -96.05362
    195       2.00000          -3.529905          -96.05361
    196       2.00000          -3.529905          -96.05361
    197       2.00000          -3.529905          -96.05361
    198       2.00000          -3.529904          -96.05358
    199       2.00000          -3.529901          -96.05351
    200       2.00000          -3.529897          -96.05339
    201       2.00000          -3.529896          -96.05335
    202       2.00000          -3.529860          -96.05238
    203       2.00000          -3.529858          -96.05233
    204       2.00000          -3.529853          -96.05218
    205       2.00000          -3.529852          -96.05217
    206       2.00000          -3.529848          -96.05205
    207       2.00000          -3.529848          -96.05205
    208       2.00000          -3.529756          -96.04955
    209       2.00000          -3.529748          -96.04934
    210       2.00000          -3.529742          -96.04917
    211       2.00000          -3.529739          -96.04907
    212       2.00000          -3.529738          -96.04907
    213       2.00000          -3.529738          -96.04906
    214       2.00000          -3.529734          -96.04894
    215       2.00000          -3.529732          -96.04890
    216       2.00000          -3.529697          -96.04794
    217       2.00000          -3.529694          -96.04786
    218       2.00000          -3.529690          -96.04776
    219       2.00000          -3.529675          -96.04734
    220       2.00000          -3.529670          -96.04721
    221       2.00000          -3.529670          -96.04720
    222       2.00000          -3.529653          -96.04674
    223       2.00000          -3.529652          -96.04672
    224       2.00000          -3.529652          -96.04672
    225       2.00000          -3.529652          -96.04672
    226       2.00000          -3.529652          -96.04672
    227       2.00000          -3.529652          -96.04672
    228       2.00000          -3.529652          -96.04672
    229       2.00000          -3.529652          -96.04672
    230       2.00000          -3.529652          -96.04672
    231       2.00000          -3.529652          -96.04671
    232       2.00000          -3.529645          -96.04654
    233       2.00000          -3.529644          -96.04650
    234       2.00000          -3.529643          -96.04647
    235       2.00000          -3.529631          -96.04614
    236       2.00000          -3.529629          -96.04611
    237       2.00000          -3.529626          -96.04602
    238       2.00000          -3.529618          -96.04578
    239       2.00000          -3.529617          -96.04576
    240       2.00000          -3.529617          -96.04576
    241       2.00000          -3.529617          -96.04576
    242       2.00000          -3.529617          -96.04576
    243       2.00000          -3.529616          -96.04575
    244       2.00000          -3.529616          -96.04574
    245       2.00000          -3.529616          -96.04573
    246       2.00000          -3.529616          -96.04573
    247       2.00000          -3.529616          -96.04573
    248       2.00000          -3.529616          -96.04573
    249       2.00000          -3.529615          -96.04572
    250       2.00000          -3.529615          -96.04570
    251       2.00000          -3.529615          -96.04570
    252       2.00000          -3.529615          -96.04570
    253       2.00000          -3.529615          -96.04570
    254       2.00000          -3.529615          -96.04570
    255       2.00000          -3.529614          -96.04570
    256       2.00000          -3.529603          -96.04537
    257       2.00000          -3.529598          -96.04526
    258       2.00000          -3.529598          -96.04524
    259       2.00000          -3.529592          -96.04509
    260       2.00000          -3.529591          -96.04505
    261       2.00000          -3.529588          -96.04498
    262       2.00000          -3.529587          -96.04495
    263       2.00000          -3.529587          -96.04495
    264       2.00000          -3.529587          -96.04495
    265       2.00000          -3.529587          -96.04495
    266       2.00000          -3.529587          -96.04495
    267       2.00000          -3.529587          -96.04494
    268       2.00000          -3.529544          -96.04377
    269       2.00000          -3.529543          -96.04375
    270       2.00000          -3.529519          -96.04311
    271       2.00000          -0.668468          -18.18993
    272       2.00000          -0.618724          -16.83633
    273       2.00000          -0.618604          -16.83306
    274       2.00000          -0.618594          -16.83281
    275       2.00000          -0.618594          -16.83281
    276       2.00000          -0.618594          -16.83281
    277       2.00000          -0.618594          -16.83281
    278       2.00000          -0.618585          -16.83256
    279       2.00000          -0.618470          -16.82941
    280       2.00000          -0.599504          -16.31333
    281       2.00000          -0.599402          -16.31055
    282       2.00000          -0.599394          -16.31035
    283       2.00000          -0.599394          -16.31035
    284       2.00000          -0.599387          -16.31015
    285       2.00000          -0.599286          -16.30741
    286       2.00000          -0.550660          -14.98423
    287       2.00000          -0.550451          -14.97852
    288       2.00000          -0.550446          -14.97840
    289       2.00000          -0.550441          -14.97826
    290       2.00000          -0.550439          -14.97821
    291       2.00000          -0.550438          -14.97817
    292       2.00000          -0.550438          -14.97817
    293       2.00000          -0.550437          -14.97814
    294       2.00000          -0.550435          -14.97809
    295       2.00000          -0.550429          -14.97794
    296       2.00000          -0.550424          -14.97781
    297       2.00000          -0.550218          -14.97220
    298       2.00000          -0.480215          -13.06732
    299       2.00000          -0.480017          -13.06192
    300       2.00000          -0.480013          -13.06181
    301       2.00000          -0.480003          -13.06155
    302       2.00000          -0.480000          -13.06147
    303       2.00000          -0.479995          -13.06134
    304       2.00000          -0.479995          -13.06134
    305       2.00000          -0.479991          -13.06121
    306       2.00000          -0.479988          -13.06113
    307       2.00000          -0.479978          -13.06085
    308       2.00000          -0.479974          -13.06074
    309       2.00000          -0.479778          -13.05542
    310       2.00000          -0.426231          -11.59834
    311       2.00000          -0.426151          -11.59617
    312       2.00000          -0.426115          -11.59517
    313       2.00000          -0.426114          -11.59516
    314       2.00000          -0.426114          -11.59516
    315       2.00000          -0.426114          -11.59516
    316       2.00000          -0.426078          -11.59417
    317       2.00000          -0.426000          -11.59206
    318       2.00000          -0.416572          -11.33550
    319       2.00000          -0.416479          -11.33297
    320       2.00000          -0.416466          -11.33261
    321       2.00000          -0.416466          -11.33260
    322       2.00000          -0.416452          -11.33225
    323       2.00000          -0.416358          -11.32969
    324       2.00000          -0.389832          -10.60787
    325       2.00000          -0.389803          -10.60708
    326       2.00000          -0.389768          -10.60612
    327       2.00000          -0.389748          -10.60559
    328       2.00000          -0.389748          -10.60557
    329       2.00000          -0.389746          -10.60554
    330       2.00000          -0.389746          -10.60554
    331       2.00000          -0.389745          -10.60551
    332       2.00000          -0.389745          -10.60550
    333       2.00000          -0.389725          -10.60496
    334       2.00000          -0.389689          -10.60396
    335       2.00000          -0.389661          -10.60322
    336       2.00000          -0.319335           -8.68954
    337       2.00000          -0.319223           -8.68651
    338       2.00000          -0.319215           -8.68628
    339       2.00000          -0.319194           -8.68571
    340       2.00000          -0.319193           -8.68567
    341       2.00000          -0.319192           -8.68567
    342       2.00000          -0.319192           -8.68567
    343       2.00000          -0.319192           -8.68566
    344       2.00000          -0.319191           -8.68563
    345       2.00000          -0.319170           -8.68506
    346       2.00000          -0.319162           -8.68485
    347       2.00000          -0.319055           -8.68192
    348       2.00000          -0.308652           -8.39885
    349       2.00000          -0.308574           -8.39672
    350       2.00000          -0.308533           -8.39560
    351       2.00000          -0.308521           -8.39530
    352       2.00000          -0.308513           -8.39507
    353       2.00000          -0.308512           -8.39503
    354       2.00000          -0.308512           -8.39503
    355       2.00000          -0.308510           -8.39499
    356       2.00000          -0.308502           -8.39476
    357       2.00000          -0.308491           -8.39446
    358       2.00000          -0.308449           -8.39331
    359       2.00000          -0.308369           -8.39114
    360       2.00000          -0.269632           -7.33705
    361       2.00000          -0.269399           -7.33072
    362       2.00000          -0.269375           -7.33006
    363       2.00000          -0.269370           -7.32993
    364       2.00000          -0.269351           -7.32941
    365       2.00000          -0.269349           -7.32936
    366       2.00000          -0.269347           -7.32931
    367       2.00000          -0.269347           -7.32930
    368       2.00000          -0.269346           -7.32929
    369       2.00000          -0.269346           -7.32928
    370       2.00000          -0.269344           -7.32923
    371       2.00000          -0.269342           -7.32918
    372       2.00000          -0.269323           -7.32866
    373       2.00000          -0.269319           -7.32855
    374       2.00000          -0.269293           -7.32783
    375       2.00000          -0.269058           -7.32144
    376       2.00000          -0.234756           -6.38803
    377       2.00000          -0.234685           -6.38611
    378       2.00000          -0.234613           -6.38414
    379       0.00000          -0.197061           -5.36231
    380       0.00000          -0.197036           -5.36161
    381       0.00000          -0.196990           -5.36038
    382       0.00000          -0.196990           -5.36038
    383       0.00000          -0.196946           -5.35917
    384       0.00000          -0.196921           -5.35849
    385       0.00000          -0.165159           -4.49421
    386       0.00000          -0.165118           -4.49308
    387       0.00000          -0.165055           -4.49139
    388       0.00000          -0.165032           -4.49074
    389       0.00000          -0.165031           -4.49072
    390       0.00000          -0.165027           -4.49062
    391       0.00000          -0.165027           -4.49061
    392       0.00000          -0.165023           -4.49052
    393       0.00000          -0.165023           -4.49049
    394       0.00000          -0.164999           -4.48986
    395       0.00000          -0.164941           -4.48827
    396       0.00000          -0.164902           -4.48722
    397       0.00000          -0.162348           -4.41771
    398       0.00000          -0.162318           -4.41689
    399       0.00000          -0.162303           -4.41649
    400       0.00000          -0.162303           -4.41649
    401       0.00000          -0.162303           -4.41649
    402       0.00000          -0.162301           -4.41643
    403       0.00000          -0.162289           -4.41610
    404       0.00000          -0.162254           -4.41517
    405       0.00000          -0.146872           -3.99660
    406       0.00000          -0.146831           -3.99548
    407       0.00000          -0.146809           -3.99489
    408       0.00000          -0.146809           -3.99487
    409       0.00000          -0.146787           -3.99427
    410       0.00000          -0.146745           -3.99314
    411       0.00000          -0.130663           -3.55553
    412       0.00000          -0.130625           -3.55449
    413       0.00000          -0.130586           -3.55342
    414       0.00000          -0.105444           -2.86928
    415       0.00000          -0.095414           -2.59634
    416       0.00000          -0.095386           -2.59560
    417       0.00000          -0.095246           -2.59177
    418       0.00000          -0.095238           -2.59157
    419       0.00000          -0.095234           -2.59144
    420       0.00000          -0.095225           -2.59121
    421       0.00000          -0.095225           -2.59121
    422       0.00000          -0.095224           -2.59118
    423       0.00000          -0.095223           -2.59115
    424       0.00000          -0.095222           -2.59112
    425       0.00000          -0.095222           -2.59112
    426       0.00000          -0.095213           -2.59088
    427       0.00000          -0.095209           -2.59077
    428       0.00000          -0.095201           -2.59056
    429       0.00000          -0.095061           -2.58674
    430       0.00000          -0.095033           -2.58597
    431       0.00000          -0.009874           -0.26869
    432       0.00000          -0.009799           -0.26665
    433       0.00000          -0.009788           -0.26635
    434       0.00000          -0.009767           -0.26576
    435       0.00000          -0.009755           -0.26545
    436       0.00000          -0.009743           -0.26512
    437       0.00000          -0.009743           -0.26512
    438       0.00000          -0.009731           -0.26479
    439       0.00000          -0.009720           -0.26450
    440       0.00000          -0.009698           -0.26389
    441       0.00000          -0.009688           -0.26363
    442       0.00000          -0.009614           -0.26161
    443       0.00000           0.016355            0.44504
    444       0.00000           0.016398            0.44621
    445       0.00000           0.016482            0.44849
    446       0.00000           0.016496            0.44889
    447       0.00000           0.016505            0.44914
    448       0.00000           0.016508            0.44920
    449       0.00000           0.016508            0.44920
    450       0.00000           0.016510            0.44926
    451       0.00000           0.016519            0.44951
    452       0.00000           0.016533            0.44990
    453       0.00000           0.016615            0.45213
    454       0.00000           0.016658            0.45328
    455       0.00000           0.034390            0.93580
    456       0.00000           0.034430            0.93689
    457       0.00000           0.034443            0.93725
    458       0.00000           0.034464            0.93782
    459       0.00000           0.034488            0.93846
    460       0.00000           0.034502            0.93884
    461       0.00000           0.034502            0.93885
    462       0.00000           0.034516            0.93922
    463       0.00000           0.034539            0.93985
    464       0.00000           0.034558            0.94036
    465       0.00000           0.034570            0.94070
    466       0.00000           0.034608            0.94174
    467       0.00000           0.039724            1.08094
    468       0.00000           0.039742            1.08144
    469       0.00000           0.039776            1.08235
    470       0.00000           0.039834            1.08393
    471       0.00000           0.039837            1.08402
    472       0.00000           0.039837            1.08402
    473       0.00000           0.039837            1.08402
    474       0.00000           0.039837            1.08402
    475       0.00000           0.039840            1.08411
    476       0.00000           0.039898            1.08568
    477       0.00000           0.039934            1.08665
    478       0.00000           0.039954            1.08719
    479       0.00000           0.055631            1.51379
    480       0.00000           0.055694            1.51550
    481       0.00000           0.055701            1.51570
    482       0.00000           0.055725            1.51634
    483       0.00000           0.055735            1.51661
    484       0.00000           0.055750            1.51703
    485       0.00000           0.055750            1.51703
    486       0.00000           0.055765            1.51744
    487       0.00000           0.055774            1.51768
    488       0.00000           0.055796            1.51830
    489       0.00000           0.055804            1.51852
    490       0.00000           0.055871            1.52033
    491       0.00000           0.064196            1.74686
    492       0.00000           0.064198            1.74691
    493       0.00000           0.067008            1.82338
    494       0.00000           0.067049            1.82449
    495       0.00000           0.067068            1.82502
    496       0.00000           0.067081            1.82537
    497       0.00000           0.067114            1.82627
    498       0.00000           0.067121            1.82646
    499       0.00000           0.067121            1.82646
    500       0.00000           0.067128            1.82664
    501       0.00000           0.067163            1.82759
    502       0.00000           0.067175            1.82793
    503       0.00000           0.067195            1.82847
    504       0.00000           0.067236            1.82959
    505       0.00000           0.085445            2.32508
    506       0.00000           0.085462            2.32553
    507       0.00000           0.085523            2.32720
    508       0.00000           0.085570            2.32849
    509       0.00000           0.085591            2.32904
    510       0.00000           0.085597            2.32922
    511       0.00000           0.085605            2.32943
    512       0.00000           0.085605            2.32943
    513       0.00000           0.085607            2.32950

  Calculating total energy contributions from superposition of free atom densities.
 
  Total energy components:
  | Sum of eigenvalues            :      -8824.46762252 Ha    -240125.98148430 eV
  | XC energy correction          :      -1067.97874473 Ha     -29061.18026069 eV
  | XC potential correction       :       1410.94368234 Ha      38393.73104789 eV
  | Free-atom electrostatic energy:      -7092.87730889 Ha    -193007.01166365 eV
  | Hartree energy correction     :          0.00000000 Ha          0.00000000 eV
  | Entropy correction            :          0.00000000 Ha          0.00000000 eV
  | ---------------------------
  | Total energy                  :     -15574.37999381 Ha    -423800.44236074 eV
  | Total energy, T -> 0          :     -15574.37999381 Ha    -423800.44236074 eV
  | Free energy                   :     -15574.37999381 Ha    -423800.44236074 eV
 
  Derived energy quantities:
  | Kinetic energy                :      15539.41177404 Ha     422848.90868719 eV
  | Electrostatic energy          :     -30045.81302312 Ha    -817588.17078724 eV
  | Energy correction for multipole
  | error in Hartree potential    :          0.00000000 Ha          0.00000000 eV
  | Sum of eigenvalues per atom                       :      -4446.77743489 eV
  | Total energy (T->0) per atom                      :      -7848.15634001 eV
  | Free energy per atom                              :      -7848.15634001 eV

  End scf initialization - timings        :  max(cpu_time)   wall_clock_time(cpu1)
  Time for scf. initialization            :       59.320 s          59.522 s
  Integration                             :        5.440 s           5.439 s
  Solution of K.-S. eqns.                 :       44.090 s          44.114 s
  Grid partitioning                       :        2.430 s           2.462 s
  Preloading free-atom quantities on grid :        2.520 s           2.525 s
  Free-atom superposition energy          :        2.460 s           2.459 s
  Total energy evaluation                 :        0.010 s           0.009 s
------------------------------------------------------------

------------------------------------------------------------
          Begin self-consistency iteration #    1

  Date     :  20090924, Time     :  083712.680
------------------------------------------------------------
  Evaluating new KS density using the density matrix
  Pulay mixing of updated and previous charge densities.

  Evaluating partitioned Hartree potential by multipole expansion.
  | Analytical far-field extrapolation by fixed multipoles:
  | Hartree multipole sum: apparent total charge =   0.853162E-01
  Summing up the Hartree potential.
  | Reciprocal lattice points for long-range Hartree potential:    2636
  | RMS charge density error from multipole expansion :   0.380229E-01
  | Average real-space part of the electrostatic potential :      0.26760139 eV
 
  Integrating Hamiltonian matrix: batch-based integration.

  Updating Kohn-Sham eigenvalues, eigenvectors, occupation numbers, and Fermi level.
  Determining occupation numbers for Kohn-Sham eigenstates.
  | Chemical potential (Fermi level) in eV                 : -.58020476E+01
  | Error in electron count due to remaining E_F inaccuracy: 0.00000000E+00

  Writing Kohn-Sham eigenvalues.
 K-point: 1

  State    Occupation    Eigenvalue [Ha]    Eigenvalue [eV]
      1       2.00000         -65.166188        -1773.26221
      2       2.00000         -65.166111        -1773.26010
      3       2.00000         -65.166111        -1773.26010
      4       2.00000         -65.166099        -1773.25977
      5       2.00000         -65.166099        -1773.25977
      6       2.00000         -65.166093        -1773.25960
      7       2.00000         -65.166093        -1773.25960
      8       2.00000         -65.165981        -1773.25657
      9       2.00000         -65.165967        -1773.25618
     10       2.00000         -65.165943        -1773.25553
     11       2.00000         -65.165933        -1773.25526
     12       2.00000         -65.165930        -1773.25518
     13       2.00000         -65.165930        -1773.25518
     14       2.00000         -65.165929        -1773.25516
     15       2.00000         -65.165929        -1773.25516
     16       2.00000         -65.165904        -1773.25448
     17       2.00000         -65.165900        -1773.25436
     18       2.00000         -65.165900        -1773.25436
     19       2.00000         -65.165895        -1773.25423
     20       2.00000         -65.165895        -1773.25423
     21       2.00000         -65.165892        -1773.25415
     22       2.00000         -65.165892        -1773.25415
     23       2.00000         -65.165892        -1773.25415
     24       2.00000         -65.165892        -1773.25415
     25       2.00000         -65.165892        -1773.25415
     26       2.00000         -65.165892        -1773.25415
     27       2.00000         -65.165892        -1773.25415
     28       2.00000         -65.165892        -1773.25414
     29       2.00000         -65.165892        -1773.25414
     30       2.00000         -65.165892        -1773.25414
     31       2.00000         -65.165892        -1773.25414
     32       2.00000         -65.165892        -1773.25414
     33       2.00000         -65.165892        -1773.25414
     34       2.00000         -65.165892        -1773.25414
     35       2.00000         -65.165892        -1773.25413
     36       2.00000         -65.165889        -1773.25406
     37       2.00000         -65.165884        -1773.25394
     38       2.00000         -65.165884        -1773.25394
     39       2.00000         -65.165880        -1773.25382
     40       2.00000         -65.165855        -1773.25315
     41       2.00000         -65.165855        -1773.25315
     42       2.00000         -65.165854        -1773.25311
     43       2.00000         -65.165854        -1773.25311
     44       2.00000         -65.165852        -1773.25305
     45       2.00000         -65.165841        -1773.25275
     46       2.00000         -65.165817        -1773.25210
     47       2.00000         -65.165803        -1773.25173
     48       2.00000         -65.165691        -1773.24868
     49       2.00000         -65.165691        -1773.24868
     50       2.00000         -65.165686        -1773.24854
     51       2.00000         -65.165686        -1773.24854
     52       2.00000         -65.165674        -1773.24820
     53       2.00000         -65.165674        -1773.24820
     54       2.00000         -65.165587        -1773.24583
     55       2.00000          -5.068734         -137.92726
     56       2.00000          -5.068717         -137.92681
     57       2.00000          -5.068684         -137.92592
     58       2.00000          -5.068671         -137.92554
     59       2.00000          -5.068651         -137.92502
     60       2.00000          -5.068641         -137.92474
     61       2.00000          -5.068611         -137.92391
     62       2.00000          -5.068597         -137.92354
     63       2.00000          -5.068581         -137.92311
     64       2.00000          -5.068569         -137.92278
     65       2.00000          -5.068555         -137.92239
     66       2.00000          -5.068554         -137.92237
     67       2.00000          -5.068552         -137.92230
     68       2.00000          -5.068536         -137.92189
     69       2.00000          -5.068533         -137.92180
     70       2.00000          -5.068527         -137.92163
     71       2.00000          -5.068525         -137.92158
     72       2.00000          -5.068517         -137.92135
     73       2.00000          -5.068513         -137.92126
     74       2.00000          -5.068507         -137.92110
     75       2.00000          -5.068507         -137.92109
     76       2.00000          -5.068496         -137.92079
     77       2.00000          -5.068486         -137.92052
     78       2.00000          -5.068475         -137.92022
     79       2.00000          -5.068470         -137.92008
     80       2.00000          -5.068464         -137.91991
     81       2.00000          -5.068462         -137.91986
     82       2.00000          -5.068452         -137.91959
     83       2.00000          -5.068450         -137.91953
     84       2.00000          -5.068444         -137.91937
     85       2.00000          -5.068440         -137.91926
     86       2.00000          -5.068427         -137.91891
     87       2.00000          -5.068418         -137.91867
     88       2.00000          -5.068406         -137.91836
     89       2.00000          -5.068406         -137.91835
     90       2.00000          -5.068400         -137.91819
     91       2.00000          -5.068397         -137.91809
     92       2.00000          -5.068388         -137.91786
     93       2.00000          -5.068386         -137.91781
     94       2.00000          -5.068381         -137.91766
     95       2.00000          -5.068377         -137.91755
     96       2.00000          -5.068362         -137.91714
     97       2.00000          -5.068359         -137.91707
     98       2.00000          -5.068358         -137.91705
     99       2.00000          -5.068344         -137.91666
    100       2.00000          -5.068332         -137.91632
    101       2.00000          -5.068316         -137.91588
    102       2.00000          -5.068303         -137.91553
    103       2.00000          -5.068272         -137.91469
    104       2.00000          -5.068255         -137.91424
    105       2.00000          -5.068243         -137.91391
    106       2.00000          -5.068229         -137.91352
    107       2.00000          -5.068196         -137.91263
    108       2.00000          -5.068179         -137.91217
    109       2.00000          -3.507964          -95.45655
    110       2.00000          -3.507959          -95.45642
    111       2.00000          -3.507939          -95.45589
    112       2.00000          -3.507924          -95.45548
    113       2.00000          -3.507921          -95.45538
    114       2.00000          -3.507899          -95.45480
    115       2.00000          -3.507894          -95.45466
    116       2.00000          -3.507887          -95.45447
    117       2.00000          -3.507883          -95.45434
    118       2.00000          -3.507876          -95.45415
    119       2.00000          -3.507866          -95.45389
    120       2.00000          -3.507857          -95.45364
    121       2.00000          -3.507854          -95.45355
    122       2.00000          -3.507851          -95.45348
    123       2.00000          -3.507831          -95.45294
    124       2.00000          -3.507829          -95.45290
    125       2.00000          -3.507822          -95.45270
    126       2.00000          -3.507819          -95.45262
    127       2.00000          -3.507818          -95.45258
    128       2.00000          -3.507815          -95.45250
    129       2.00000          -3.507809          -95.45234
    130       2.00000          -3.507805          -95.45224
    131       2.00000          -3.507805          -95.45224
    132       2.00000          -3.507804          -95.45220
    133       2.00000          -3.507800          -95.45210
    134       2.00000          -3.507796          -95.45199
    135       2.00000          -3.507792          -95.45187
    136       2.00000          -3.507788          -95.45177
    137       2.00000          -3.507786          -95.45172
    138       2.00000          -3.507783          -95.45164
    139       2.00000          -3.507776          -95.45145
    140       2.00000          -3.507775          -95.45141
    141       2.00000          -3.507774          -95.45138
    142       2.00000          -3.507769          -95.45125
    143       2.00000          -3.507766          -95.45117
    144       2.00000          -3.507765          -95.45113
    145       2.00000          -3.507764          -95.45111
    146       2.00000          -3.507761          -95.45104
    147       2.00000          -3.507757          -95.45094
    148       2.00000          -3.507755          -95.45086
    149       2.00000          -3.507748          -95.45067
    150       2.00000          -3.507738          -95.45040
    151       2.00000          -3.507733          -95.45026
    152       2.00000          -3.507729          -95.45017
    153       2.00000          -3.507728          -95.45014
    154       2.00000          -3.507727          -95.45010
    155       2.00000          -3.507723          -95.44999
    156       2.00000          -3.507718          -95.44986
    157       2.00000          -3.507716          -95.44982
    158       2.00000          -3.507706          -95.44955
    159       2.00000          -3.507701          -95.44941
    160       2.00000          -3.507700          -95.44937
    161       2.00000          -3.507693          -95.44917
    162       2.00000          -3.507688          -95.44904
    163       2.00000          -3.507678          -95.44878
    164       2.00000          -3.507670          -95.44854
    165       2.00000          -3.507664          -95.44838
    166       2.00000          -3.507649          -95.44800
    167       2.00000          -3.507644          -95.44786
    168       2.00000          -3.507636          -95.44764
    169       2.00000          -3.507619          -95.44718
    170       2.00000          -3.507608          -95.44688
    171       2.00000          -3.507605          -95.44679
    172       2.00000          -3.507575          -95.44597
    173       2.00000          -3.507567          -95.44576
    174       2.00000          -3.507565          -95.44569
    175       2.00000          -3.507556          -95.44547
    176       2.00000          -3.507553          -95.44536
    177       2.00000          -3.507529          -95.44472
    178       2.00000          -3.507525          -95.44460
    179       2.00000          -3.507524          -95.44459
    180       2.00000          -3.507499          -95.44390
    181       2.00000          -3.507497          -95.44384
    182       2.00000          -3.507490          -95.44365
    183       2.00000          -3.507489          -95.44363
    184       2.00000          -3.507482          -95.44344
    185       2.00000          -3.507477          -95.44331
    186       2.00000          -3.507465          -95.44298
    187       2.00000          -3.507462          -95.44289
    188       2.00000          -3.507461          -95.44286
    189       2.00000          -3.507446          -95.44247
    190       2.00000          -3.507329          -95.43926
    191       2.00000          -3.507314          -95.43888
    192       2.00000          -3.507313          -95.43884
    193       2.00000          -3.507310          -95.43875
    194       2.00000          -3.507298          -95.43843
    195       2.00000          -3.507296          -95.43838
    196       2.00000          -3.507287          -95.43813
    197       2.00000          -3.507285          -95.43809
    198       2.00000          -3.507278          -95.43790
    199       2.00000          -3.507277          -95.43785
    200       2.00000          -3.507250          -95.43714
    201       2.00000          -3.507250          -95.43714
    202       2.00000          -3.507246          -95.43702
    203       2.00000          -3.507222          -95.43638
    204       2.00000          -3.507218          -95.43627
    205       2.00000          -3.507210          -95.43604
    206       2.00000          -3.507207          -95.43596
    207       2.00000          -3.507200          -95.43576
    208       2.00000          -3.507169          -95.43494
    209       2.00000          -3.507167          -95.43486
    210       2.00000          -3.507157          -95.43459
    211       2.00000          -3.507138          -95.43409
    212       2.00000          -3.507130          -95.43387
    213       2.00000          -3.507125          -95.43373
    214       2.00000          -3.507111          -95.43334
    215       2.00000          -3.507105          -95.43318
    216       2.00000          -3.507096          -95.43294
    217       2.00000          -3.507087          -95.43270
    218       2.00000          -3.507081          -95.43254
    219       2.00000          -3.507074          -95.43235
    220       2.00000          -3.507073          -95.43231
    221       2.00000          -3.507069          -95.43219
    222       2.00000          -3.507061          -95.43198
    223       2.00000          -3.507057          -95.43186
    224       2.00000          -3.507052          -95.43174
    225       2.00000          -3.507049          -95.43165
    226       2.00000          -3.507047          -95.43162
    227       2.00000          -3.507045          -95.43156
    228       2.00000          -3.507041          -95.43145
    229       2.00000          -3.507037          -95.43133
    230       2.00000          -3.507027          -95.43106
    231       2.00000          -3.507020          -95.43086
    232       2.00000          -3.507017          -95.43078
    233       2.00000          -3.507013          -95.43067
    234       2.00000          -3.507010          -95.43061
    235       2.00000          -3.507010          -95.43059
    236       2.00000          -3.507009          -95.43056
    237       2.00000          -3.507005          -95.43047
    238       2.00000          -3.507000          -95.43033
    239       2.00000          -3.506999          -95.43031
    240       2.00000          -3.506998          -95.43027
    241       2.00000          -3.506991          -95.43008
    242       2.00000          -3.506988          -95.42999
    243       2.00000          -3.506986          -95.42993
    244       2.00000          -3.506981          -95.42980
    245       2.00000          -3.506977          -95.42969
    246       2.00000          -3.506974          -95.42962
    247       2.00000          -3.506969          -95.42949
    248       2.00000          -3.506969          -95.42947
    249       2.00000          -3.506969          -95.42947
    250       2.00000          -3.506965          -95.42937
    251       2.00000          -3.506959          -95.42922
    252       2.00000          -3.506956          -95.42912
    253       2.00000          -3.506954          -95.42909
    254       2.00000          -3.506951          -95.42898
    255       2.00000          -3.506945          -95.42882
    256       2.00000          -3.506932          -95.42848
    257       2.00000          -3.506922          -95.42822
    258       2.00000          -3.506920          -95.42816
    259       2.00000          -3.506911          -95.42790
    260       2.00000          -3.506908          -95.42783
    261       2.00000          -3.506896          -95.42749
    262       2.00000          -3.506892          -95.42739
    263       2.00000          -3.506886          -95.42723
    264       2.00000          -3.506878          -95.42701
    265       2.00000          -3.506875          -95.42693
    266       2.00000          -3.506853          -95.42633
    267       2.00000          -3.506850          -95.42623
    268       2.00000          -3.506835          -95.42583
    269       2.00000          -3.506815          -95.42530
    270       2.00000          -3.506810          -95.42517
    271       2.00000          -0.658243          -17.91169
    272       2.00000          -0.607717          -16.53681
    273       2.00000          -0.607628          -16.53441
    274       2.00000          -0.607602          -16.53369
    275       2.00000          -0.607602          -16.53368
    276       2.00000          -0.607601          -16.53368
    277       2.00000          -0.607601          -16.53367
    278       2.00000          -0.607574          -16.53294
    279       2.00000          -0.607488          -16.53060
    280       2.00000          -0.588384          -16.01073
    281       2.00000          -0.588308          -16.00868
    282       2.00000          -0.588303          -16.00853
    283       2.00000          -0.588303          -16.00853
    284       2.00000          -0.588297          -16.00837
    285       2.00000          -0.588222          -16.00633
    286       2.00000          -0.538193          -14.64498
    287       2.00000          -0.538100          -14.64245
    288       2.00000          -0.538077          -14.64181
    289       2.00000          -0.538073          -14.64170
    290       2.00000          -0.538040          -14.64081
    291       2.00000          -0.538035          -14.64067
    292       2.00000          -0.538034          -14.64066
    293       2.00000          -0.538029          -14.64052
    294       2.00000          -0.537997          -14.63964
    295       2.00000          -0.537993          -14.63952
    296       2.00000          -0.537969          -14.63888
    297       2.00000          -0.537877          -14.63638
    298       2.00000          -0.467825          -12.73017
    299       2.00000          -0.467674          -12.72606
    300       2.00000          -0.467660          -12.72568
    301       2.00000          -0.467651          -12.72543
    302       2.00000          -0.467640          -12.72512
    303       2.00000          -0.467625          -12.72472
    304       2.00000          -0.467625          -12.72472
    305       2.00000          -0.467611          -12.72433
    306       2.00000          -0.467600          -12.72403
    307       2.00000          -0.467590          -12.72377
    308       2.00000          -0.467576          -12.72339
    309       2.00000          -0.467426          -12.71930
    310       2.00000          -0.415576          -11.30840
    311       2.00000          -0.415530          -11.30715
    312       2.00000          -0.415483          -11.30586
    313       2.00000          -0.415483          -11.30586
    314       2.00000          -0.415482          -11.30585
    315       2.00000          -0.415482          -11.30585
    316       2.00000          -0.415436          -11.30458
    317       2.00000          -0.415391          -11.30338
    318       2.00000          -0.402983          -10.96574
    319       2.00000          -0.402899          -10.96345
    320       2.00000          -0.402889          -10.96316
    321       2.00000          -0.402888          -10.96314
    322       2.00000          -0.402877          -10.96285
    323       2.00000          -0.402793          -10.96055
    324       2.00000          -0.382588          -10.41075
    325       2.00000          -0.382566          -10.41014
    326       2.00000          -0.382508          -10.40859
    327       2.00000          -0.382505          -10.40849
    328       2.00000          -0.382489          -10.40804
    329       2.00000          -0.382472          -10.40760
    330       2.00000          -0.382472          -10.40760
    331       2.00000          -0.382456          -10.40715
    332       2.00000          -0.382439          -10.40670
    333       2.00000          -0.382436          -10.40663
    334       2.00000          -0.382377          -10.40500
    335       2.00000          -0.382357          -10.40446
    336       2.00000          -0.308351           -8.39066
    337       2.00000          -0.308255           -8.38805
    338       2.00000          -0.308252           -8.38796
    339       2.00000          -0.308249           -8.38787
    340       2.00000          -0.308236           -8.38753
    341       2.00000          -0.308236           -8.38753
    342       2.00000          -0.308236           -8.38752
    343       2.00000          -0.308236           -8.38752
    344       2.00000          -0.308224           -8.38719
    345       2.00000          -0.308220           -8.38709
    346       2.00000          -0.308216           -8.38699
    347       2.00000          -0.308123           -8.38446
    348       2.00000          -0.297130           -8.08531
    349       2.00000          -0.297080           -8.08397
    350       2.00000          -0.297063           -8.08350
    351       2.00000          -0.297043           -8.08296
    352       2.00000          -0.297040           -8.08287
    353       2.00000          -0.297029           -8.08258
    354       2.00000          -0.297029           -8.08258
    355       2.00000          -0.297019           -8.08229
    356       2.00000          -0.297016           -8.08221
    357       2.00000          -0.296996           -8.08167
    358       2.00000          -0.296978           -8.08118
    359       2.00000          -0.296927           -8.07980
    360       2.00000          -0.256450           -6.97837
    361       2.00000          -0.256238           -6.97260
    362       2.00000          -0.256227           -6.97228
    363       2.00000          -0.256224           -6.97222
    364       2.00000          -0.256193           -6.97137
    365       2.00000          -0.256188           -6.97123
    366       2.00000          -0.256187           -6.97119
    367       2.00000          -0.256185           -6.97115
    368       2.00000          -0.256183           -6.97110
    369       2.00000          -0.256182           -6.97106
    370       2.00000          -0.256180           -6.97102
    371       2.00000          -0.256175           -6.97088
    372       2.00000          -0.256144           -6.97003
    373       2.00000          -0.256142           -6.96997
    374       2.00000          -0.256129           -6.96963
    375       2.00000          -0.255915           -6.96380
    376       2.00000          -0.220085           -5.98883
    377       2.00000          -0.220018           -5.98700
    378       2.00000          -0.219950           -5.98513
    379       0.00000          -0.192402           -5.23554
    380       0.00000          -0.192374           -5.23477
    381       0.00000          -0.192336           -5.23373
    382       0.00000          -0.192336           -5.23372
    383       0.00000          -0.192298           -5.23271
    384       0.00000          -0.192271           -5.23195
    385       0.00000          -0.160404           -4.36481
    386       0.00000          -0.160369           -4.36386
    387       0.00000          -0.160310           -4.36227
    388       0.00000          -0.160298           -4.36192
    389       0.00000          -0.160291           -4.36175
    390       0.00000          -0.160287           -4.36164
    391       0.00000          -0.160287           -4.36163
    392       0.00000          -0.160283           -4.36151
    393       0.00000          -0.160276           -4.36134
    394       0.00000          -0.160264           -4.36100
    395       0.00000          -0.160208           -4.35947
    396       0.00000          -0.160174           -4.35855
    397       0.00000          -0.153013           -4.16369
    398       0.00000          -0.152983           -4.16287
    399       0.00000          -0.152945           -4.16185
    400       0.00000          -0.152944           -4.16183
    401       0.00000          -0.152944           -4.16183
    402       0.00000          -0.152944           -4.16182
    403       0.00000          -0.152906           -4.16078
    404       0.00000          -0.152876           -4.15996
    405       0.00000          -0.143035           -3.89217
    406       0.00000          -0.142995           -3.89109
    407       0.00000          -0.142972           -3.89047
    408       0.00000          -0.142971           -3.89045
[...]
    316       2.00000          -0.412867          -11.23468
    317       2.00000          -0.412807          -11.23306
    318       2.00000          -0.399843          -10.88028
    319       2.00000          -0.399758          -10.87798
    320       2.00000          -0.399749          -10.87771
    321       2.00000          -0.399748          -10.87770
    322       2.00000          -0.399738          -10.87743
    323       2.00000          -0.399654          -10.87513
    324       2.00000          -0.380615          -10.35706
    325       2.00000          -0.380581          -10.35615
    326       2.00000          -0.380540          -10.35501
    327       2.00000          -0.380527          -10.35466
    328       2.00000          -0.380521          -10.35451
    329       2.00000          -0.380514          -10.35430
    330       2.00000          -0.380514          -10.35430
    331       2.00000          -0.380506          -10.35409
    332       2.00000          -0.380501          -10.35395
    333       2.00000          -0.380487          -10.35359
    334       2.00000          -0.380444          -10.35240
    335       2.00000          -0.380412          -10.35155
    336       2.00000          -0.305653           -8.31723
    337       2.00000          -0.305561           -8.31474
    338       2.00000          -0.305556           -8.31460
    339       2.00000          -0.305542           -8.31422
    340       2.00000          -0.305535           -8.31403
    341       2.00000          -0.305535           -8.31402
    342       2.00000          -0.305535           -8.31402
    343       2.00000          -0.305534           -8.31402
    344       2.00000          -0.305528           -8.31383
    345       2.00000          -0.305514           -8.31346
    346       2.00000          -0.305509           -8.31332
    347       2.00000          -0.305419           -8.31089
    348       2.00000          -0.294318           -8.00881
    349       2.00000          -0.294264           -8.00733
    350       2.00000          -0.294222           -8.00620
    351       2.00000          -0.294219           -8.00609
    352       2.00000          -0.294216           -8.00604
    353       2.00000          -0.294206           -8.00574
    354       2.00000          -0.294206           -8.00574
    355       2.00000          -0.294195           -8.00545
    356       2.00000          -0.294193           -8.00539
    357       2.00000          -0.294189           -8.00529
    358       2.00000          -0.294147           -8.00414
    359       2.00000          -0.294091           -8.00262
    360       2.00000          -0.253201           -6.88994
    361       2.00000          -0.252995           -6.88433
    362       2.00000          -0.252972           -6.88370
    363       2.00000          -0.252971           -6.88369
    364       2.00000          -0.252949           -6.88309
    365       2.00000          -0.252948           -6.88306
    366       2.00000          -0.252946           -6.88302
    367       2.00000          -0.252944           -6.88296
    368       2.00000          -0.252944           -6.88295
    369       2.00000          -0.252941           -6.88287
    370       2.00000          -0.252940           -6.88284
    371       2.00000          -0.252939           -6.88281
    372       2.00000          -0.252917           -6.88222
    373       2.00000          -0.252916           -6.88221
    374       2.00000          -0.252892           -6.88154
    375       2.00000          -0.252684           -6.87589
    376       2.00000          -0.216399           -5.88852
    377       2.00000          -0.216333           -5.88673
    378       2.00000          -0.216266           -5.88489
    379       0.00000          -0.191024           -5.19804
    380       0.00000          -0.190996           -5.19728
    381       0.00000          -0.190955           -5.19615
    382       0.00000          -0.190955           -5.19615
    383       0.00000          -0.190914           -5.19504
    384       0.00000          -0.190887           -5.19430
    385       0.00000          -0.159059           -4.32820
    386       0.00000          -0.159017           -4.32707
    387       0.00000          -0.158957           -4.32544
    388       0.00000          -0.158937           -4.32490
    389       0.00000          -0.158935           -4.32484
    390       0.00000          -0.158931           -4.32474
    391       0.00000          -0.158931           -4.32474
    392       0.00000          -0.158928           -4.32464
    393       0.00000          -0.158925           -4.32457
    394       0.00000          -0.158906           -4.32405
    395       0.00000          -0.158848           -4.32247
    396       0.00000          -0.158808           -4.32138
    397       0.00000          -0.150895           -4.10607
    398       0.00000          -0.150863           -4.10518
    399       0.00000          -0.150840           -4.10457
    400       0.00000          -0.150840           -4.10456
    401       0.00000          -0.150840           -4.10456
    402       0.00000          -0.150840           -4.10456
    403       0.00000          -0.150817           -4.10394
    404       0.00000          -0.150784           -4.10304
    405       0.00000          -0.141835           -3.85953
    406       0.00000          -0.141792           -3.85836
    407       0.00000          -0.141770           -3.85777
    408       0.00000          -0.141770           -3.85775
    409       0.00000          -0.141747           -3.85714
    410       0.00000          -0.141704           -3.85597
    411       0.00000          -0.121594           -3.30873
    412       0.00000          -0.121555           -3.30768
    413       0.00000          -0.121515           -3.30660
    414       0.00000          -0.087446           -2.37953
    415       0.00000          -0.086939           -2.36572
    416       0.00000          -0.086923           -2.36528
    417       0.00000          -0.086776           -2.36130
    418       0.00000          -0.086773           -2.36123
    419       0.00000          -0.086770           -2.36114
    420       0.00000          -0.086759           -2.36083
    421       0.00000          -0.086757           -2.36077
    422       0.00000          -0.086755           -2.36072
    423       0.00000          -0.086753           -2.36067
    424       0.00000          -0.086751           -2.36062
    425       0.00000          -0.086749           -2.36055
    426       0.00000          -0.086737           -2.36024
    427       0.00000          -0.086734           -2.36016
    428       0.00000          -0.086732           -2.36009
    429       0.00000          -0.086585           -2.35610
    430       0.00000          -0.086568           -2.35563
    431       0.00000           0.001058            0.02878
    432       0.00000           0.001126            0.03064
    433       0.00000           0.001134            0.03086
    434       0.00000           0.001166            0.03174
    435       0.00000           0.001172            0.03190
    436       0.00000           0.001184            0.03221
    437       0.00000           0.001184            0.03221
    438       0.00000           0.001195            0.03252
    439       0.00000           0.001200            0.03265
    440       0.00000           0.001233            0.03356
    441       0.00000           0.001240            0.03374
    442       0.00000           0.001308            0.03559
    443       0.00000           0.027389            0.74530
    444       0.00000           0.027435            0.74655
    445       0.00000           0.027516            0.74874
    446       0.00000           0.027533            0.74922
    447       0.00000           0.027535            0.74927
    448       0.00000           0.027542            0.74945
    449       0.00000           0.027542            0.74945
    450       0.00000           0.027548            0.74963
    451       0.00000           0.027550            0.74968
    452       0.00000           0.027568            0.75015
    453       0.00000           0.027646            0.75229
    454       0.00000           0.027693            0.75356
    455       0.00000           0.047801            1.30073
    456       0.00000           0.047841            1.30183
    457       0.00000           0.047857            1.30226
    458       0.00000           0.047876            1.30278
    459       0.00000           0.047894            1.30327
    460       0.00000           0.047912            1.30376
    461       0.00000           0.047912            1.30376
    462       0.00000           0.047930            1.30424
    463       0.00000           0.047948            1.30472
    464       0.00000           0.047965            1.30519
    465       0.00000           0.047980            1.30560
    466       0.00000           0.048019            1.30665
    467       0.00000           0.053367            1.45220
    468       0.00000           0.053381            1.45258
    469       0.00000           0.053422            1.45370
    470       0.00000           0.053473            1.45508
    471       0.00000           0.053475            1.45514
    472       0.00000           0.053475            1.45514
    473       0.00000           0.053476            1.45514
    474       0.00000           0.053476            1.45514
    475       0.00000           0.053478            1.45521
    476       0.00000           0.053528            1.45658
    477       0.00000           0.053571            1.45774
    478       0.00000           0.053587            1.45817
    479       0.00000           0.068855            1.87364
    480       0.00000           0.068924            1.87553
    481       0.00000           0.068930            1.87568
    482       0.00000           0.068961            1.87653
    483       0.00000           0.068968            1.87671
    484       0.00000           0.068982            1.87709
    485       0.00000           0.068982            1.87709
    486       0.00000           0.068995            1.87745
    487       0.00000           0.069001            1.87761
    488       0.00000           0.069031            1.87842
    489       0.00000           0.069037            1.87859
    490       0.00000           0.069110            1.88059
    491       0.00000           0.073651            2.00414
    492       0.00000           0.073653            2.00419
    493       0.00000           0.077449            2.10748
    494       0.00000           0.077487            2.10853
    495       0.00000           0.077510            2.10915
    496       0.00000           0.077521            2.10944
    497       0.00000           0.077549            2.11020
    498       0.00000           0.077557            2.11043
    499       0.00000           0.077557            2.11043
    500       0.00000           0.077565            2.11066
    501       0.00000           0.077595            2.11147
    502       0.00000           0.077606            2.11177
    503       0.00000           0.077628            2.11237
    504       0.00000           0.077668            2.11347
    505       0.00000           0.096213            2.61809
    506       0.00000           0.096224            2.61840
    507       0.00000           0.096281            2.61995
    508       0.00000           0.096329            2.62124
    509       0.00000           0.096352            2.62187
    510       0.00000           0.096356            2.62199
    511       0.00000           0.096362            2.62216
    512       0.00000           0.096364            2.62220
    513       0.00000           0.096367            2.62227


  Self-consistency cycle converged.

  End self-consistency iteration #    15  :  max(cpu_time)   wall_clock_time(cpu1)
  Time for this iteration                 :       74.910 s          75.142 s
  Charge density & force component update :       38.540 s          38.621 s
  Density mixing                          :        0.010 s           0.006 s
  Hartree multipole update                :        0.140 s           0.131 s
  Hartree multipole summation             :       15.440 s          15.469 s
  Integration                             :        2.850 s           2.850 s
  Solution of K.-S. eqns.                 :       17.970 s          17.971 s
  Total energy evaluation                 :        0.010 s           0.006 s
------------------------------------------------------------
 
  Energy and forces in a compact form:
  | Total energy uncorrected      :         -0.423795509412671E+06 eV
  | Total energy corrected        :         -0.423795509412671E+06 eV
  | Free energy                   :         -0.423795509412671E+06 eV
  Total atomic forces (unitary forces cleaned) [eV/Ang]:
  |   1         -0.166072643521388E-02         -0.960141842166826E-01         -0.960142582181064E-01
  |   2          0.118368418930760E-02          0.275438476954379E-02          0.275448323130605E-02
  |   3         -0.117002351363292E-02          0.272458000114251E-02          0.272440078991036E-02
  |   4          0.910522276718337E-03         -0.317264554355183E-02          0.709060635064688E-03
  |   5          0.170563637271892E-05          0.570489209960469E-03          0.565421663498283E-03
  |   6         -0.925697106259825E-03          0.704720817076799E-03         -0.317672292093187E-02
  |   7          0.203223730272250E-02         -0.434929668385670E-02          0.182201946384525E-02
  |   8         -0.203565462589664E-02          0.181565918285138E-02         -0.434516536863565E-02
  |   9          0.132653941359785E-05          0.576588622558926E-03          0.583285762625820E-03
  |  10          0.910311655359405E-03          0.708971131637812E-03         -0.317251146390856E-02
  |  11          0.163696471452674E-05          0.565625274793768E-03          0.570495304854252E-03
  |  12         -0.925846731249434E-03         -0.317685687701319E-02          0.704609012675641E-03
  |  13          0.644944863933210E-03         -0.822318179860128E-04         -0.822670339404269E-04
  |  14         -0.653136424790256E-03         -0.866171489049874E-04         -0.867432577950345E-04
  |  15          0.124036041189012E-05          0.281027696294827E-03          0.281144971219357E-03
  |  16         -0.398651691120368E-05         -0.217085897354917E-03         -0.207658206876775E-03
  |  17         -0.251213230606196E-05          0.214917900202520E-03          0.283355726004064E-03
  |  18          0.428515672774134E-05          0.280489272617030E-03          0.209896867628120E-03
  |  19          0.203233043337823E-02          0.182212469462239E-02         -0.434924773514571E-02
  |  20         -0.203562975348775E-02         -0.434516531050890E-02          0.181563491253051E-02
  |  21         -0.404215687986228E-06          0.582486533986592E-03          0.577340879095714E-03
  |  22         -0.404565951934180E-05         -0.207581909017687E-03         -0.216949925520165E-03
  |  23         -0.337177068894462E-05          0.282472472700553E-03          0.214816648464769E-03
  |  24          0.388020041756109E-05          0.210038683415916E-03          0.281053493678123E-03
  |  25          0.663628649904218E-03         -0.810767085743259E-04         -0.803628708802299E-04
  |  26          0.283780626079529E-05          0.285093230611172E-03          0.285224399959064E-03
  |  27         -0.655941142483187E-03         -0.797922220390627E-04         -0.798096024159370E-04
  |  28          0.334541121383583E-01          0.407505354661460E-01          0.407507539186396E-01
  |  29         -0.182452086448372E-05          0.246589901803531E-03          0.246491342568634E-03
  |  30         -0.319879796518766E-01          0.396759059721103E-01          0.396759613346868E-01
  |  31          0.132574787567680E-04          0.254313083500093E-02          0.230740866358898E-03
  |  32         -0.198274866960840E-04          0.230191428986196E-03          0.253621990260493E-02
  |  33         -0.576635835798512E-05         -0.822478742061700E-03         -0.831989199426892E-03
  |  34          0.118702443870778E-03          0.741893750553543E-02          0.757691835871874E-02
  |  35         -0.157195110125820E-03         -0.287402639661582E-03         -0.677251007338606E-03
  |  36          0.154876734848265E-03         -0.672607440752651E-03         -0.283655578142109E-03
  |  37          0.131716564061083E-04          0.230899807827189E-03          0.254328627908512E-02
  |  38         -0.198834340942206E-04          0.253616311710818E-02          0.230091758657019E-03
  |  39         -0.598860627849072E-05         -0.832119927973198E-03         -0.822502511947783E-03
  |  40          0.176163309872048E-05          0.214336407323194E-03          0.214179408747553E-03
  |  41         -0.676508313533049E-04         -0.260288396157629E-03         -0.260327197228079E-03
  |  42          0.725048088298576E-04         -0.263604724532822E-03         -0.263532588777697E-03
  |  43         -0.778008329837914E-03          0.306087177456718E-03         -0.553001687012151E-04
  |  44          0.180760264044438E-05         -0.187487007915549E-03         -0.192506393953048E-03
  |  45          0.775006291987585E-03         -0.516578847505123E-04          0.311332980345368E-03
  |  46          0.118846302023921E-03          0.757695336911175E-02          0.741902154536875E-02
  |  47         -0.156263613110120E-03         -0.676053716427892E-03         -0.287575152339642E-03
  |  48          0.155938918893450E-03         -0.283477660135734E-03         -0.673940211186127E-03
  |  49         -0.776672214385475E-03         -0.541388266583558E-04          0.306044649397454E-03
  |  50          0.177233666442985E-05         -0.192692143827897E-03         -0.187542902643371E-03
  |  51          0.775069574666835E-03          0.311353113348592E-03         -0.514260223765813E-04
  |  52         -0.598520184343000E-03          0.106335279909729E-03          0.106325255893977E-03
  |  53          0.594654081040978E-03          0.101866277415491E-03          0.102019995100836E-03
  |  54         -0.340520834812635E-06         -0.230741438134656E-03         -0.230759045971087E-03
 

------------------------------------------------------------
          Leaving FHI-aims.
          Date     :  20090924, Time     :  084604.769

          Computational steps:
          | Number of self-consistency cycles          :           15

          Detailed time accounting                     :  max(cpu_time)   wall_clock_time(cpu1)
          | Total time                                 :      588.800 s         592.529 s
          | Preparation time                           :        0.450 s           0.454 s
          | Grid partitioning                          :        2.430 s           2.462 s
          | Preloading free-atom quantities on grid    :        2.520 s           2.525 s
          | Free-atom superposition energy             :        2.460 s           2.459 s
          | Total time for integrations                :       47.950 s          48.040 s
          | Total time for solution of K.-S. equations :      313.990 s         315.605 s
          | Total time for density & force components  :       91.100 s          91.276 s
          | Total time for mixing                      :        0.090 s           0.074 s
          | Total time for Hartree multipole update    :        2.140 s           2.131 s
          | Total time for Hartree multipole sum       :      123.810 s         124.201 s
          | Total time for total energy evaluation     :        0.100 s           0.077 s

          Have a nice day.
------------------------------------------------------------
