64   
2    

1    
  0.0100000000000000   0.0000000000000000   0.0000000000000000
  -0.0180619400    0.0000000000    0.0000000000
   0.0030240400    0.0000000000    0.0000000000
  -0.0000434000    0.0000000000    0.0000000000
   0.0001066900    0.0000000000    0.0000000000
  -0.0000434000    0.0000000000    0.0000000000
   0.0001066900    0.0000000000    0.0000000000
  -0.0001589900    0.0000000000    0.0000000000
   0.0001344200    0.0000000000    0.0000000000
  -0.0005716800   -0.0000021200   -0.0000021200
   0.0003817600    0.0000002400    0.0000002400
  -0.0005716800    0.0000021200   -0.0000021200
   0.0003817600   -0.0000002400    0.0000002400
  -0.0005716800   -0.0000021200    0.0000021200
   0.0003817600    0.0000002400   -0.0000002400
  -0.0005716800    0.0000021200    0.0000021200
   0.0003817600   -0.0000002400   -0.0000002400
   0.0004845700    0.0000000000    0.0019354900
   0.0004850100    0.0000000000   -0.0019214300
  -0.0000183800    0.0000000000   -0.0000178800
  -0.0000173700    0.0000000000    0.0000170400
   0.0004845700    0.0000000000   -0.0019354900
   0.0004850100    0.0000000000    0.0019214300
  -0.0000183800    0.0000000000    0.0000178800
  -0.0000173700    0.0000000000   -0.0000170400
   0.0004845700    0.0019354900    0.0000000000
   0.0004850100   -0.0019214300    0.0000000000
   0.0004845700   -0.0019354900    0.0000000000
   0.0004850100    0.0019214300    0.0000000000
  -0.0000183800   -0.0000178800    0.0000000000
  -0.0000173700    0.0000170400    0.0000000000
  -0.0000183800    0.0000178800    0.0000000000
  -0.0000173700   -0.0000170400    0.0000000000
  -0.0000810800   -0.0004282000   -0.0004282000
  -0.0000835100    0.0004258800    0.0004258800
  -0.0000810800    0.0004282000   -0.0004282000
  -0.0000835100   -0.0004258800    0.0004258800
  -0.0000810800   -0.0004282000    0.0004282000
  -0.0000835100    0.0004258800   -0.0004258800
  -0.0000810800    0.0004282000    0.0004282000
  -0.0000835100   -0.0004258800   -0.0004258800
   0.0050201700    0.0000000000    0.0000000000
   0.0046140400    0.0000000000    0.0000000000
   0.0000408300    0.0000000000    0.0000000000
   0.0000373700    0.0000000000    0.0000000000
   0.0000408300    0.0000000000    0.0000000000
   0.0000373700    0.0000000000    0.0000000000
  -0.0000105300    0.0000000000    0.0000000000
  -0.0000118000    0.0000000000    0.0000000000
   0.0017148800   -0.0000110200    0.0000000000
  -0.0009600300   -0.0000013600    0.0000000000
   0.0017148800    0.0000110200    0.0000000000
  -0.0009600300    0.0000013600    0.0000000000
   0.0001936100    0.0000011800    0.0000000000
  -0.0002359000    0.0000000900    0.0000000000
   0.0001936100   -0.0000011800    0.0000000000
  -0.0002359000   -0.0000000900    0.0000000000
   0.0017148800    0.0000000000   -0.0000110200
  -0.0009600300    0.0000000000   -0.0000013600
   0.0001936100    0.0000000000    0.0000011800
  -0.0002359000    0.0000000000    0.0000000900
   0.0017148800    0.0000000000    0.0000110200
  -0.0009600300    0.0000000000    0.0000013600
   0.0001936100    0.0000000000   -0.0000011800
  -0.0002359000    0.0000000000   -0.0000000900

33   
  0.0100000000000000   0.0000000000000000   0.0000000000000000
  -0.0000721800   -0.0004247300   -0.0004247300
  -0.0000667600    0.0004272300    0.0004272300
  -0.0000721800    0.0004247300   -0.0004247300
  -0.0000667600   -0.0004272300    0.0004272300
  -0.0000721800   -0.0004247300    0.0004247300
  -0.0000667600    0.0004272300   -0.0004272300
  -0.0000721800    0.0004247300    0.0004247300
  -0.0000667600   -0.0004272300   -0.0004272300
   0.0046345100    0.0000000000    0.0000000000
   0.0050314800    0.0000000000    0.0000000000
   0.0000499300    0.0000000000    0.0000000000
   0.0000510900    0.0000000000    0.0000000000
   0.0000499300    0.0000000000    0.0000000000
   0.0000510900    0.0000000000    0.0000000000
  -0.0000030400    0.0000000000    0.0000000000
   0.0000012000    0.0000000000    0.0000000000
   0.0017234100    0.0000077800    0.0000000000
  -0.0009445700   -0.0000004700    0.0000000000
   0.0017234100   -0.0000077800    0.0000000000
  -0.0009445700    0.0000004700    0.0000000000
   0.0002042400    0.0000019500    0.0000000000
  -0.0002202400   -0.0000015500    0.0000000000
   0.0002042400   -0.0000019500    0.0000000000
  -0.0002202400    0.0000015500    0.0000000000
   0.0017234100    0.0000000000    0.0000077800
  -0.0009445700    0.0000000000   -0.0000004700
   0.0002042400    0.0000000000    0.0000019500
  -0.0002202400    0.0000000000   -0.0000015500
   0.0017234100    0.0000000000   -0.0000077800
  -0.0009445700    0.0000000000    0.0000004700
   0.0002042400    0.0000000000   -0.0000019500
  -0.0002202400    0.0000000000    0.0000015500
  -0.0236731700    0.0000000000    0.0000000000
   0.0013201600    0.0000000000    0.0000000000
  -0.0005159800    0.0000000000    0.0000000000
   0.0006463500    0.0000000000    0.0000000000
  -0.0005159800    0.0000000000    0.0000000000
   0.0006463500    0.0000000000    0.0000000000
  -0.0001691500    0.0000000000    0.0000000000
   0.0001742700    0.0000000000    0.0000000000
  -0.0008016000    0.0000039800    0.0000039800
   0.0005170500   -0.0000010700   -0.0000010700
  -0.0008016000   -0.0000039800    0.0000039800
   0.0005170500    0.0000010700   -0.0000010700
  -0.0008016000    0.0000039800   -0.0000039800
   0.0005170500   -0.0000010700    0.0000010700
  -0.0008016000   -0.0000039800   -0.0000039800
   0.0005170500    0.0000010700    0.0000010700
   0.0013674700    0.0000000000    0.0020506700
   0.0013743700    0.0000000000   -0.0020695000
  -0.0000146100    0.0000000000    0.0001925900
  -0.0000113300    0.0000000000   -0.0001898400
   0.0013674700    0.0000000000   -0.0020506700
   0.0013743700    0.0000000000    0.0020695000
  -0.0000146100    0.0000000000   -0.0001925900
  -0.0000113300    0.0000000000    0.0001898400
   0.0013674700    0.0020506700    0.0000000000
   0.0013743700   -0.0020695000    0.0000000000
   0.0013674700   -0.0020506700    0.0000000000
   0.0013743700    0.0020695000    0.0000000000
  -0.0000146100    0.0001925900    0.0000000000
  -0.0000113300   -0.0001898400    0.0000000000
  -0.0000146100   -0.0001925900    0.0000000000
  -0.0000113300    0.0001898400    0.0000000000
