90   
13   

1    
  0.0100000000000000   0.0000000000000000   0.0000000000000000
  -0.0687925900    0.0000000000    0.0040961700
   0.0024281200    0.0000000000    0.0040542100
   0.0024264900    0.0000000000    0.0038857200
   0.0003309200   -0.0000579500    0.0039755400
   0.0014357000    0.0021220400    0.0038849800
   0.0014330900   -0.0020922300    0.0040526300
   0.0003309200    0.0000579500    0.0039755400
   0.0014357000   -0.0021220400    0.0038849800
   0.0014330900    0.0020922300    0.0040526300
  -0.0028295900    0.0000000000    0.0039671100
   0.0029509200    0.0000000000    0.0039319300
   0.0029245500    0.0000000000    0.0040020800
  -0.0007040900   -0.0000060100    0.0039669900
   0.0003838700    0.0006802600    0.0039431100
   0.0003891500   -0.0006745400    0.0039932500
  -0.0007040900    0.0000060100    0.0039669900
   0.0003838700   -0.0006802600    0.0039431100
   0.0003891500    0.0006745400    0.0039932500
   0.0095534100   -0.0123952800    0.0042573600
   0.0043324700   -0.0000059600    0.0039685500
   0.0095038200    0.0122270300    0.0036857000
   0.0095534100    0.0123952800    0.0042573600
   0.0043324700    0.0000059600    0.0039685500
   0.0095038200   -0.0122270300    0.0036857000
  -0.0007719200    0.0000000000    0.0040554100
   0.0021308400    0.0000000000    0.0039697900
  -0.0007389500    0.0000000000    0.0038837200
  -0.0012950800   -0.0012470400    0.0040633700
   0.0024861500   -0.0000014600    0.0039690400
  -0.0012690200    0.0012323900    0.0038725000
  -0.0012950800    0.0012470400    0.0040633700
   0.0024861500    0.0000014600    0.0039690400
  -0.0012690200   -0.0012323900    0.0038725000
  -0.0005235400    0.0000000000    0.0040049500
   0.0010522500    0.0000000000    0.0039677900
  -0.0005095300    0.0000000000    0.0039299300
  -0.0035992200    0.0000291600   -0.0051072600
   0.0011545600   -0.0006545100   -0.0044109100
   0.0011561000    0.0006468500   -0.0057023000
  -0.0035992200   -0.0000291600   -0.0051072600
   0.0011545600    0.0006545100   -0.0044109100
   0.0011561000   -0.0006468500   -0.0057023000
  -0.0005489600    0.0000000000   -0.0050694800
   0.0002618300    0.0000000000   -0.0047742900
   0.0002671700    0.0000000000   -0.0053455900
  -0.0034979400    0.0000209000   -0.0050183700
   0.0011481200   -0.0007811800   -0.0057239300
   0.0011488000    0.0007736400   -0.0043978400
  -0.0034979400   -0.0000209000   -0.0050183700
   0.0011481200    0.0007811800   -0.0057239300
   0.0011488000   -0.0007736400   -0.0043978400
  -0.0006258500    0.0000000000   -0.0050524800
   0.0002770800    0.0000000000   -0.0052027700
   0.0002819600    0.0000000000   -0.0049115200
   0.0183243700    0.0000551700   -0.0016380800
  -0.0082208100    0.0016705700   -0.0019158100
  -0.0081985900   -0.0016474300   -0.0013455800
   0.0183243700   -0.0000551700   -0.0016380800
  -0.0082208100   -0.0016705700   -0.0019158100
  -0.0081985900    0.0016474300   -0.0013455800
   0.0018504200    0.0000000000   -0.0016225500
  -0.0010707400    0.0000000000   -0.0017621100
  -0.0011074100    0.0000000000   -0.0014958600
   0.0037379500    0.0000125300   -0.0016284300
  -0.0018126200    0.0019740000   -0.0014014000
  -0.0018181300   -0.0019494500   -0.0018466200
   0.0037379500   -0.0000125300   -0.0016284300
  -0.0018126200   -0.0019740000   -0.0014014000
  -0.0018181300    0.0019494500   -0.0018466200
   0.0012652000    0.0000000000   -0.0016238400
  -0.0006308600    0.0000000000   -0.0016336600
  -0.0006530400    0.0000000000   -0.0016235800
   0.0015710900    0.0000000000   -0.0029416300
  -0.0022722700    0.0000000000   -0.0012494500
   0.0014270800    0.0000000000    0.0005965800
   0.0006393500   -0.0009495000   -0.0019466300
  -0.0011535800   -0.0000002600   -0.0012538900
   0.0006173500    0.0009484500   -0.0005518600
   0.0006393500    0.0009495000   -0.0019466300
  -0.0011535800    0.0000002600   -0.0012538900
   0.0006173500   -0.0009484500   -0.0005518600
   0.0048910600    0.0000000000   -0.0020881800
  -0.0022799600    0.0000000000   -0.0012533800
   0.0046608400    0.0000000000   -0.0006759000
   0.0006296400   -0.0010297400   -0.0004870400
  -0.0011019600   -0.0000026700   -0.0012480600
   0.0006103900    0.0010203900   -0.0020185800
   0.0006296400    0.0010297400   -0.0004870400
  -0.0011019600    0.0000026700   -0.0012480600
   0.0006103900   -0.0010203900   -0.0020185800

1    
  0.0000000000000000   0.0100000000000000   0.0000000000000000
   0.0000000000   -0.1495919100    0.0035823700
  -0.0000058900   -0.0090041500    0.0039622600
   0.0000058900   -0.0090041500    0.0039622600
   0.0000000000    0.0395329000    0.0012975100
   0.0021151000    0.0049058600    0.0040105400
  -0.0021151000    0.0049058600    0.0040105400
   0.0000000000    0.0391297600    0.0065987400
  -0.0021008100    0.0049157800    0.0039204100
   0.0021008100    0.0049157800    0.0039204100
   0.0000000000   -0.0126163700    0.0039863100
  -0.0000330200   -0.0033202500    0.0039666600
   0.0000330200   -0.0033202500    0.0039666600
   0.0000000000    0.0066872600    0.0049741500
   0.0006780800    0.0016405300    0.0041979300
  -0.0006780800    0.0016405300    0.0041979300
   0.0000000000    0.0067110300    0.0029885300
  -0.0006734200    0.0016725700    0.0037402100
   0.0006734200    0.0016725700    0.0037402100
  -0.0276944800    0.0095481400    0.0048937600
   0.0000000000   -0.0007522600    0.0044777300
   0.0276944800    0.0095481400    0.0048937600
   0.0279838400    0.0095057700    0.0030215700
   0.0000000000   -0.0007580800    0.0034502900
  -0.0279838400    0.0095057700    0.0030215700
   0.0000340600    0.0043339000    0.0039645200
   0.0000000000    0.0021297300    0.0039654300
  -0.0000340600    0.0043339000    0.0039645200
  -0.0032984500   -0.0012592500    0.0034133800
   0.0000000000   -0.0005092700    0.0038982300
   0.0032984500   -0.0012592500    0.0034133800
   0.0033155700   -0.0013039000    0.0045343100
   0.0000000000   -0.0005247900    0.0040392800
  -0.0033155700   -0.0013039000    0.0045343100
   0.0000075300    0.0024848300    0.0039690300
   0.0000000000    0.0010527900    0.0039669100
  -0.0000075300    0.0024848300    0.0039690300
   0.0000000000    0.0099320500   -0.0304956700
  -0.0012170400   -0.0009183000   -0.0069548600
   0.0012170400   -0.0009183000   -0.0069548600
   0.0000000000    0.0098877300    0.0208286300
   0.0012118800   -0.0009431200   -0.0031318800
  -0.0012118800   -0.0009431200   -0.0031318800
   0.0000000000    0.0047208600   -0.0050217700
   0.0000054000    0.0019086800   -0.0050510700
  -0.0000054000    0.0019086800   -0.0050510700
   0.0000000000    0.0067339200    0.0129600600
  -0.0010403400   -0.0008354800   -0.0038754100
   0.0010403400   -0.0008354800   -0.0038754100
   0.0000000000    0.0066780300   -0.0231218900
   0.0010296200   -0.0008655400   -0.0062485600
  -0.0010296200   -0.0008655400   -0.0062485600
   0.0000000000    0.0045586300   -0.0050744800
   0.0000029600    0.0015664300   -0.0050596000
  -0.0000029600    0.0015664300   -0.0050596000
   0.0000000000   -0.0026266700   -0.0042316700
   0.0138435300    0.0033657900   -0.0010340500
  -0.0138435300    0.0033657900   -0.0010340500
   0.0000000000    0.0017364800    0.0011122700
  -0.0138976400    0.0034025200   -0.0022249500
   0.0138976400    0.0034025200   -0.0022249500
   0.0000000000   -0.0310144500   -0.0016345800
  -0.0000212000   -0.0071242100   -0.0016281100
   0.0000212000   -0.0071242100   -0.0016281100
   0.0000000000    0.0046267000   -0.0006017600
   0.0021898700    0.0016836300   -0.0015093300
  -0.0021898700    0.0016836300   -0.0015093300
   0.0000000000    0.0046912300   -0.0028136000
  -0.0021813500    0.0017541200   -0.0017564700
   0.0021813500    0.0017541200   -0.0017564700
   0.0000000000   -0.0099926100   -0.0016350400
  -0.0000071800   -0.0034707600   -0.0016284400
   0.0000071800   -0.0034707600   -0.0016284400
   0.0000564800    0.0114348300   -0.0011789800
   0.0000000000    0.0023549600   -0.0012562600
  -0.0000564800    0.0114348300   -0.0011789800
  -0.0031438000   -0.0043156000   -0.0035277900
   0.0000000000   -0.0011695500   -0.0016560700
   0.0031438000   -0.0043156000   -0.0035277900
   0.0031057400   -0.0043238400    0.0010032500
   0.0000000000   -0.0011826800   -0.0008523100
  -0.0031057400   -0.0043238400    0.0010032500
   0.0000765500    0.0099286400   -0.0013145700
   0.0000000000    0.0019975800   -0.0012438000
  -0.0000765500    0.0099286400   -0.0013145700
  -0.0021609400   -0.0032796400    0.0011139300
   0.0000000000   -0.0009919200   -0.0008034600
   0.0021609400   -0.0032796400    0.0011139300
   0.0021419000   -0.0033015600   -0.0035865900
   0.0000000000   -0.0010039500   -0.0016863400
  -0.0021419000   -0.0033015600   -0.0035865900

1    
  0.0000000000000000   0.0000000000000000   0.0100000000000000
   0.0000000000    0.0000000000   -0.0624135800
  -0.0000847000    0.0000000000    0.0027212600
   0.0000847000    0.0000000000    0.0027212600
   0.0000000000    0.0025984000    0.0040209800
   0.0000797200   -0.0000444700    0.0038233700
  -0.0000797200   -0.0000444700    0.0038233700
   0.0000000000   -0.0025984000    0.0040209800
   0.0000797200    0.0000444700    0.0038233700
  -0.0000797200    0.0000444700    0.0038233700
   0.0000000000    0.0000000000    0.0075886000
   0.0000485800    0.0000000000    0.0067616400
  -0.0000485800    0.0000000000    0.0067616400
   0.0000000000   -0.0009752800    0.0055565100
   0.0000245600   -0.0002251000    0.0041724600
  -0.0000245600   -0.0002251000    0.0041724600
   0.0000000000    0.0009752800    0.0055565100
   0.0000245600    0.0002251000    0.0041724600
  -0.0000245600    0.0002251000    0.0041724600
   0.0008811200    0.0003129000    0.0007203800
   0.0000000000    0.0000838400    0.0037865200
  -0.0008811200    0.0003129000    0.0007203800
   0.0008811200   -0.0003129000    0.0007203800
   0.0000000000   -0.0000838400    0.0037865200
  -0.0008811200   -0.0003129000    0.0007203800
   0.0005081700    0.0000000000    0.0037863000
   0.0000000000    0.0000000000    0.0038791400
  -0.0005081700    0.0000000000    0.0037863000
  -0.0005573000    0.0000902600    0.0056390700
   0.0000000000    0.0000360100    0.0041257100
   0.0005573000    0.0000902600    0.0056390700
  -0.0005573000   -0.0000902600    0.0056390700
   0.0000000000   -0.0000360100    0.0041257100
   0.0005573000   -0.0000902600    0.0056390700
  -0.0000708600    0.0000000000    0.0041248900
   0.0000000000    0.0000000000    0.0040404900
   0.0000708600    0.0000000000    0.0041248900
   0.0000000000   -0.0127362400    0.0034181500
   0.0005069300   -0.0004314200   -0.0051126200
  -0.0005069300   -0.0004314200   -0.0051126200
   0.0000000000    0.0127362400    0.0034181500
   0.0005069300    0.0004314200   -0.0051126200
  -0.0005069300    0.0004314200   -0.0051126200
   0.0000000000    0.0000000000   -0.0044868100
   0.0001783700    0.0000000000   -0.0050192200
  -0.0001783700    0.0000000000   -0.0050192200
   0.0000000000    0.0098426800    0.0056102700
  -0.0005998000    0.0007315500   -0.0049475700
   0.0005998000    0.0007315500   -0.0049475700
   0.0000000000   -0.0098426800    0.0056102700
  -0.0005998000   -0.0007315500   -0.0049475700
   0.0005998000   -0.0007315500   -0.0049475700
   0.0000000000    0.0000000000   -0.0054873000
  -0.0000467000    0.0000000000   -0.0051159500
   0.0000467000    0.0000000000   -0.0051159500
   0.0000000000   -0.0010342200    0.0174622300
  -0.0004109300   -0.0001775100   -0.0007117200
   0.0004109300   -0.0001775100   -0.0007117200
   0.0000000000    0.0010342200    0.0174622300
  -0.0004109300    0.0001775100   -0.0007117200
   0.0004109300    0.0001775100   -0.0007117200
   0.0000000000    0.0000000000   -0.0010988900
  -0.0002975300    0.0000000000   -0.0014226400
   0.0002975300    0.0000000000   -0.0014226400
   0.0000000000   -0.0008133900   -0.0125383400
   0.0003118700   -0.0002222900   -0.0026395000
  -0.0003118700   -0.0002222900   -0.0026395000
   0.0000000000    0.0008133900   -0.0125383400
   0.0003118700    0.0002222900   -0.0026395000
  -0.0003118700    0.0002222900   -0.0026395000
   0.0000000000    0.0000000000   -0.0017724000
  -0.0000147000    0.0000000000   -0.0018153600
   0.0000147000    0.0000000000   -0.0018153600
  -0.0020375200    0.0000000000   -0.0009638700
   0.0000000000    0.0000000000   -0.0013836000
   0.0020375200    0.0000000000   -0.0009638700
  -0.0007873500   -0.0007009900   -0.0016099900
   0.0000000000   -0.0000059500   -0.0013810300
   0.0007873500   -0.0007009900   -0.0016099900
  -0.0007873500    0.0007009900   -0.0016099900
   0.0000000000    0.0000059500   -0.0013810300
   0.0007873500    0.0007009900   -0.0016099900
  -0.0006058900    0.0000000000    0.0020370300
   0.0000000000    0.0000000000   -0.0011473800
   0.0006058900    0.0000000000    0.0020370300
   0.0004109000    0.0007924400   -0.0007788900
   0.0000000000    0.0001398900   -0.0011241800
  -0.0004109000    0.0007924400   -0.0007788900
   0.0004109000   -0.0007924400   -0.0007788900
   0.0000000000   -0.0001398900   -0.0011241800
  -0.0004109000   -0.0007924400   -0.0007788900

1    
  0.0000000000000000   0.0000000000000000  -0.0100000000000000
   0.0000000000    0.0000000000    0.0704174300
   0.0000835200    0.0000000000    0.0052205300
  -0.0000835200    0.0000000000    0.0052205300
   0.0000000000   -0.0027021800    0.0039325800
  -0.0000882900    0.0000465500    0.0041154000
   0.0000882900    0.0000465500    0.0041154000
   0.0000000000    0.0027021800    0.0039325800
  -0.0000882900   -0.0000465500    0.0041154000
   0.0000882900   -0.0000465500    0.0041154000
   0.0000000000    0.0000000000    0.0003482200
  -0.0000215400    0.0000000000    0.0011741000
   0.0000215400    0.0000000000    0.0011741000
   0.0000000000    0.0010093900    0.0023812300
  -0.0000251300    0.0002323800    0.0037627100
   0.0000251300    0.0002323800    0.0037627100
   0.0000000000   -0.0010093900    0.0023812300
  -0.0000251300   -0.0002323800    0.0037627100
   0.0000251300   -0.0002323800    0.0037627100
  -0.0009907300   -0.0002585000    0.0072219000
   0.0000000000   -0.0000875700    0.0041531300
   0.0009907300   -0.0002585000    0.0072219000
  -0.0009907300    0.0002585000    0.0072219000
   0.0000000000    0.0000875700    0.0041531300
   0.0009907300    0.0002585000    0.0072219000
  -0.0005180700    0.0000000000    0.0041529400
   0.0000000000    0.0000000000    0.0040606400
   0.0005180700    0.0000000000    0.0041529400
   0.0005632200   -0.0001010200    0.0022965000
   0.0000000000   -0.0000396900    0.0038098300
  -0.0005632200   -0.0001010200    0.0022965000
   0.0005632200    0.0001010200    0.0022965000
   0.0000000000    0.0000396900    0.0038098300
  -0.0005632200    0.0001010200    0.0022965000
   0.0000705500    0.0000000000    0.0038093600
   0.0000000000    0.0000000000    0.0038942200
  -0.0000705500    0.0000000000    0.0038093600
   0.0000000000    0.0125452900   -0.0134816600
  -0.0005054600    0.0004223600   -0.0050124800
   0.0005054600    0.0004223600   -0.0050124800
   0.0000000000   -0.0125452900   -0.0134816600
  -0.0005054600   -0.0004223600   -0.0050124800
   0.0005054600   -0.0004223600   -0.0050124800
   0.0000000000    0.0000000000   -0.0056552700
  -0.0001786900    0.0000000000   -0.0051089700
   0.0001786900    0.0000000000   -0.0051089700
   0.0000000000   -0.0099740100   -0.0157823500
   0.0006044400   -0.0007447500   -0.0051574300
  -0.0006044400   -0.0007447500   -0.0051574300
   0.0000000000    0.0099740100   -0.0157823500
   0.0006044400    0.0007447500   -0.0051574300
  -0.0006044400    0.0007447500   -0.0051574300
   0.0000000000    0.0000000000   -0.0045976400
   0.0000458400    0.0000000000   -0.0049873100
  -0.0000458400    0.0000000000   -0.0049873100
   0.0000000000    0.0011156200   -0.0207556300
   0.0004534700    0.0001814400   -0.0025456600
  -0.0004534700    0.0001814400   -0.0025456600
   0.0000000000   -0.0011156200   -0.0207556300
   0.0004534700   -0.0001814400   -0.0025456600
  -0.0004534700   -0.0001814400   -0.0025456600
   0.0000000000    0.0000000000   -0.0021371500
   0.0003175100    0.0000000000   -0.0018277600
  -0.0003175100    0.0000000000   -0.0018277600
   0.0000000000    0.0008643800    0.0092993500
  -0.0003258800    0.0002516100   -0.0006121200
   0.0003258800    0.0002516100   -0.0006121200
   0.0000000000   -0.0008643800    0.0092993500
  -0.0003258800   -0.0002516100   -0.0006121200
   0.0003258800   -0.0002516100   -0.0006121200
   0.0000000000    0.0000000000   -0.0014930200
   0.0000178600    0.0000000000   -0.0014433600
  -0.0000178600    0.0000000000   -0.0014433600
   0.0021994900    0.0000000000   -0.0013646000
   0.0000000000    0.0000000000   -0.0011101700
  -0.0021994900    0.0000000000   -0.0013646000
   0.0007883400    0.0006966900   -0.0008756600
   0.0000000000    0.0000049400   -0.0011172500
  -0.0007883400    0.0006966900   -0.0008756600
   0.0007883400   -0.0006966900   -0.0008756600
   0.0000000000   -0.0000049400   -0.0011172500
  -0.0007883400   -0.0006966900   -0.0008756600
   0.0008417700    0.0000000000   -0.0047619000
   0.0000000000    0.0000000000   -0.0013658800
  -0.0008417700    0.0000000000   -0.0047619000
  -0.0004096300   -0.0008002500   -0.0017429700
   0.0000000000   -0.0001427000   -0.0013833100
   0.0004096300   -0.0008002500   -0.0017429700
  -0.0004096300    0.0008002500   -0.0017429700
   0.0000000000    0.0001427000   -0.0013833100
   0.0004096300    0.0008002500   -0.0017429700

37   
  0.0100000000000000   0.0000000000000000   0.0000000000000000
  -0.0035992800   -0.0000837700    0.0040013700
   0.0011538500    0.0012171900    0.0034597900
   0.0011569300   -0.0012143500    0.0044722500
  -0.0005487800    0.0000000000    0.0039681500
   0.0002627300    0.0000000000    0.0037890200
   0.0002658900    0.0000000000    0.0041459800
  -0.0035992800    0.0000837700    0.0040013700
   0.0011538500   -0.0012171900    0.0034597900
   0.0011569300    0.0012143500    0.0044722500
  -0.0034982900   -0.0000339100    0.0039522400
   0.0011481300    0.0010401800    0.0045727000
   0.0011491000   -0.0010324400    0.0033684800
  -0.0006258600    0.0000000000    0.0039687700
   0.0002773600    0.0000000000    0.0040151200
   0.0002817200    0.0000000000    0.0039225500
  -0.0034982900    0.0000339100    0.0039522400
   0.0011481300   -0.0010401800    0.0045727000
   0.0011491000    0.0010324400    0.0033684800
   0.0099194500    0.0000000000   -0.0087500700
   0.0047225300    0.0000000000    0.0039702800
   0.0099011500    0.0000000000    0.0165311600
  -0.0009402800    0.0006509300    0.0035381100
   0.0019078100    0.0000006200    0.0039678400
  -0.0009199400   -0.0006507200    0.0043922800
  -0.0009402800   -0.0006509300    0.0035381100
   0.0019078100   -0.0000006200    0.0039678400
  -0.0009199400    0.0006507200    0.0043922800
   0.0067319000    0.0000000000    0.0139530800
   0.0045609500    0.0000000000    0.0039706800
   0.0066793600    0.0000000000   -0.0058635500
  -0.0008600900    0.0007790300    0.0047111800
   0.0015661100    0.0000006900    0.0039690400
  -0.0008403600   -0.0007756500    0.0032350500
  -0.0008600900   -0.0007790300    0.0047111800
   0.0015661100   -0.0000006900    0.0039690400
  -0.0008403600    0.0007756500    0.0032350500
  -0.0676042800    0.0000000000   -0.0053103400
   0.0023317900    0.0000000000   -0.0046900700
   0.0023329000    0.0000000000   -0.0054280600
  -0.0017562800   -0.0000008500   -0.0050623800
   0.0017110700    0.0015090500   -0.0056025000
   0.0016977000   -0.0014947400   -0.0045151700
  -0.0017562800    0.0000008500   -0.0050623800
   0.0017110700   -0.0015090500   -0.0056025000
   0.0016977000    0.0014947400   -0.0045151700
   0.0010021400    0.0000000000   -0.0050191400
   0.0021435500    0.0000000000   -0.0051398700
   0.0021359600    0.0000000000   -0.0049535900
  -0.0006683900   -0.0000075800   -0.0050530500
   0.0003669100    0.0002264500   -0.0050392600
   0.0003719000   -0.0002264200   -0.0050683300
  -0.0006683900    0.0000075800   -0.0050530500
   0.0003669100   -0.0002264500   -0.0050392600
   0.0003719000    0.0002264200   -0.0050683300
   0.0220393500    0.0000000000   -0.0014355000
  -0.0087726300    0.0000000000   -0.0016512700
  -0.0087653700    0.0000000000   -0.0015993300
   0.0024709100    0.0000395300   -0.0016189000
  -0.0011770000   -0.0011350500   -0.0005732300
  -0.0011957200    0.0011341900   -0.0026799600
   0.0024709100   -0.0000395300   -0.0016189000
  -0.0011770000    0.0011350500   -0.0005732300
  -0.0011957200   -0.0011341900   -0.0026799600
   0.0148043300    0.0000000000   -0.0016578700
  -0.0069642600    0.0000000000   -0.0022874500
  -0.0069428900    0.0000000000   -0.0009935700
   0.0023808200    0.0000116100   -0.0016342100
  -0.0011850700   -0.0011240400   -0.0021919300
  -0.0011861000    0.0011116500   -0.0010732700
   0.0023808200   -0.0000116100   -0.0016342100
  -0.0011850700    0.0011240400   -0.0021919300
  -0.0011861000   -0.0011116500   -0.0010732700
   0.0038361600    0.0002070100   -0.0017615000
  -0.0020327500    0.0000001600   -0.0012513700
   0.0036325700    0.0000189400   -0.0007183800
   0.0005223700    0.0000000000   -0.0012584000
  -0.0010454100    0.0000000000   -0.0012528600
   0.0005121000    0.0000000000   -0.0012432600
   0.0038361600   -0.0002070100   -0.0017615000
  -0.0020327500   -0.0000001600   -0.0012513700
   0.0036325700   -0.0000189400   -0.0007183800
   0.0008932600   -0.0014963700   -0.0009553800
  -0.0015160400   -0.0000007000   -0.0012527600
   0.0008615900    0.0015009200   -0.0015598400
   0.0003502800    0.0000000000   -0.0012381500
  -0.0007065500    0.0000000000   -0.0012515800
   0.0003397800    0.0000000000   -0.0012687100
   0.0008932600    0.0014963700   -0.0009553800
  -0.0015160400    0.0000007000   -0.0012527600
   0.0008615900   -0.0015009200   -0.0015598400

37   
  0.0000000000000000   0.0000000000000000   0.0100000000000000
   0.0000000000   -0.0255505000    0.0124747100
  -0.0006492800   -0.0019048700    0.0039229000
   0.0006492800   -0.0019048700    0.0039229000
   0.0000000000    0.0000000000    0.0045525800
  -0.0002861600    0.0000000000    0.0040125200
   0.0002861600    0.0000000000    0.0040125200
   0.0000000000    0.0255505000    0.0124747100
  -0.0006492800    0.0019048700    0.0039229000
   0.0006492800    0.0019048700    0.0039229000
   0.0000000000    0.0182110000    0.0146840200
   0.0006617700    0.0011998500    0.0040588900
  -0.0006617700    0.0011998500    0.0040588900
   0.0000000000    0.0000000000    0.0035183700
   0.0001490000    0.0000000000    0.0038980800
  -0.0001490000    0.0000000000    0.0038980800
   0.0000000000   -0.0182110000    0.0146840200
   0.0006617700   -0.0011998500    0.0040588900
  -0.0006617700   -0.0011998500    0.0040588900
  -0.0255505000    0.0000000000    0.0124747100
   0.0000000000    0.0000000000    0.0045525800
   0.0255505000    0.0000000000    0.0124747100
  -0.0019048700   -0.0006492800    0.0039229000
   0.0000000000   -0.0002861600    0.0040125200
   0.0019048700   -0.0006492800    0.0039229000
  -0.0019048700    0.0006492800    0.0039229000
   0.0000000000    0.0002861600    0.0040125200
   0.0019048700    0.0006492800    0.0039229000
   0.0182110000    0.0000000000    0.0146840200
   0.0000000000    0.0000000000    0.0035183700
  -0.0182110000    0.0000000000    0.0146840200
   0.0011998500    0.0006617700    0.0040588900
   0.0000000000    0.0001490000    0.0038980800
  -0.0011998500    0.0006617700    0.0040588900
   0.0011998500   -0.0006617700    0.0040588900
   0.0000000000   -0.0001490000    0.0038980800
  -0.0011998500   -0.0006617700    0.0040588900
   0.0000000000    0.0000000000   -0.1780347000
  -0.0003728800    0.0000000000   -0.0097698700
   0.0003728800    0.0000000000   -0.0097698700
   0.0000000000   -0.0003728800   -0.0097698700
   0.0005287100    0.0005287100   -0.0061128300
  -0.0005287100    0.0005287100   -0.0061128300
   0.0000000000    0.0003728800   -0.0097698700
   0.0005287100   -0.0005287100   -0.0061128300
  -0.0005287100   -0.0005287100   -0.0061128300
   0.0000000000    0.0000000000    0.0485014200
   0.0001030000    0.0000000000   -0.0003157600
  -0.0001030000    0.0000000000   -0.0003157600
   0.0000000000    0.0001030000   -0.0003157600
  -0.0000131500   -0.0000131500   -0.0042831600
   0.0000131500   -0.0000131500   -0.0042831600
   0.0000000000   -0.0001030000   -0.0003157600
  -0.0000131500    0.0000131500   -0.0042831600
   0.0000131500    0.0000131500   -0.0042831600
   0.0000000000    0.0000000000    0.0810234200
   0.0115471800    0.0000000000   -0.0006576100
  -0.0115471800    0.0000000000   -0.0006576100
   0.0000000000    0.0115471800   -0.0006576100
   0.0009431000    0.0009431000   -0.0010374000
  -0.0009431000    0.0009431000   -0.0010374000
   0.0000000000   -0.0115471800   -0.0006576100
   0.0009431000   -0.0009431000   -0.0010374000
  -0.0009431000   -0.0009431000   -0.0010374000
   0.0000000000    0.0000000000   -0.0534021400
  -0.0091743900    0.0000000000   -0.0022534300
   0.0091743900    0.0000000000   -0.0022534300
   0.0000000000   -0.0091743900   -0.0022534300
  -0.0007440500   -0.0007440500   -0.0019724700
   0.0007440500   -0.0007440500   -0.0019724700
   0.0000000000    0.0091743900   -0.0022534300
  -0.0007440500    0.0007440500   -0.0019724700
   0.0007440500    0.0007440500   -0.0019724700
  -0.0030400300   -0.0030400300    0.0061168600
   0.0000000000    0.0003809800   -0.0003346000
   0.0030400300   -0.0030400300    0.0061168600
   0.0003809800    0.0000000000   -0.0003346000
   0.0000000000    0.0000000000   -0.0008223400
  -0.0003809800    0.0000000000   -0.0003346000
  -0.0030400300    0.0030400300    0.0061168600
   0.0000000000   -0.0003809800   -0.0003346000
   0.0030400300    0.0030400300    0.0061168600
   0.0002868500    0.0002868500   -0.0061653700
   0.0000000000   -0.0000353500   -0.0021756500
  -0.0002868500    0.0002868500   -0.0061653700
  -0.0000353500    0.0000000000   -0.0021756500
   0.0000000000    0.0000000000   -0.0016940800
   0.0000353500    0.0000000000   -0.0021756500
   0.0002868500   -0.0002868500   -0.0061653700
   0.0000000000    0.0000353500   -0.0021756500
  -0.0002868500   -0.0002868500   -0.0061653700

37   
  0.0000000000000000   0.0000000000000000  -0.0100000000000000
   0.0000000000    0.0257680900   -0.0044191000
   0.0006446200    0.0019157200    0.0040272600
  -0.0006446200    0.0019157200    0.0040272600
   0.0000000000    0.0000000000    0.0033887600
   0.0002878500    0.0000000000    0.0039268600
  -0.0002878500    0.0000000000    0.0039268600
   0.0000000000   -0.0257680900   -0.0044191000
   0.0006446200   -0.0019157200    0.0040272600
  -0.0006446200   -0.0019157200    0.0040272600
   0.0000000000   -0.0178742700   -0.0067026900
  -0.0006648700   -0.0011761000    0.0038541600
   0.0006648700   -0.0011761000    0.0038541600
   0.0000000000    0.0000000000    0.0044124100
  -0.0001464300    0.0000000000    0.0040310200
   0.0001464300    0.0000000000    0.0040310200
   0.0000000000    0.0178742700   -0.0067026900
  -0.0006648700    0.0011761000    0.0038541600
   0.0006648700    0.0011761000    0.0038541600
   0.0257680900    0.0000000000   -0.0044191000
   0.0000000000    0.0000000000    0.0033887600
  -0.0257680900    0.0000000000   -0.0044191000
   0.0019157200    0.0006446200    0.0040272600
   0.0000000000    0.0002878500    0.0039268600
  -0.0019157200    0.0006446200    0.0040272600
   0.0019157200   -0.0006446200    0.0040272600
   0.0000000000   -0.0002878500    0.0039268600
  -0.0019157200   -0.0006446200    0.0040272600
  -0.0178742700    0.0000000000   -0.0067026900
   0.0000000000    0.0000000000    0.0044124100
   0.0178742700    0.0000000000   -0.0067026900
  -0.0011761000   -0.0006648700    0.0038541600
   0.0000000000   -0.0001464300    0.0040310200
   0.0011761000   -0.0006648700    0.0038541600
  -0.0011761000    0.0006648700    0.0038541600
   0.0000000000    0.0001464300    0.0040310200
   0.0011761000    0.0006648700    0.0038541600
   0.0000000000    0.0000000000    0.1751862800
   0.0003618100    0.0000000000   -0.0003323600
  -0.0003618100    0.0000000000   -0.0003323600
   0.0000000000    0.0003618100   -0.0003323600
  -0.0005555800   -0.0005555800   -0.0039800500
   0.0005555800   -0.0005555800   -0.0039800500
   0.0000000000   -0.0003618100   -0.0003323600
  -0.0005555800    0.0005555800   -0.0039800500
   0.0005555800    0.0005555800   -0.0039800500
   0.0000000000    0.0000000000   -0.0583430800
  -0.0000843400    0.0000000000   -0.0097561100
   0.0000843400    0.0000000000   -0.0097561100
   0.0000000000   -0.0000843400   -0.0097561100
   0.0000166200    0.0000166200   -0.0058126400
  -0.0000166200    0.0000166200   -0.0058126400
   0.0000000000    0.0000843400   -0.0097561100
   0.0000166200   -0.0000166200   -0.0058126400
  -0.0000166200   -0.0000166200   -0.0058126400
   0.0000000000    0.0000000000   -0.0935946600
  -0.0115599400    0.0000000000   -0.0026472400
   0.0115599400    0.0000000000   -0.0026472400
   0.0000000000   -0.0115599400   -0.0026472400
  -0.0009482000   -0.0009482000   -0.0022566200
   0.0009482000   -0.0009482000   -0.0022566200
   0.0000000000    0.0115599400   -0.0026472400
  -0.0009482000    0.0009482000   -0.0022566200
   0.0009482000    0.0009482000   -0.0022566200
   0.0000000000    0.0000000000    0.0510473200
   0.0090695000    0.0000000000   -0.0010019800
  -0.0090695000    0.0000000000   -0.0010019800
   0.0000000000    0.0090695000   -0.0010019800
   0.0007372600    0.0007372600   -0.0012831200
  -0.0007372600    0.0007372600   -0.0012831200
   0.0000000000   -0.0090695000   -0.0010019800
   0.0007372600   -0.0007372600   -0.0012831200
  -0.0007372600   -0.0007372600   -0.0012831200
   0.0031440800    0.0031440800   -0.0085448800
   0.0000000000   -0.0003883300   -0.0021579900