128  
48   

1    
  0.0099999998526257   0.0000000000000000   0.0000017168245014
  -0.0453103200   -0.0003387100    0.0000297300
   0.0022833400   -0.0001197000    0.0001478800
  -0.0004992500   -0.0001595400    0.0001244400
   0.0002714800   -0.0002007400    0.0001056200
   0.0000691800   -0.0002175500    0.0000666900
  -0.0002499000   -0.0001255800    0.0000533200
   0.0000142600   -0.0002131300    0.0000710900
  -0.0001352000   -0.0002105000    0.0000652700
   0.0000593200    0.0003245700   -0.0001232700
   0.0000948500    0.0001783700    0.0002483600
   0.0000191900    0.0002091000    0.0000225600
   0.0000249300    0.0002461500    0.0001487900
   0.0022578800   -0.0012248300   -0.0025323300
   0.0022339600    0.0018479300    0.0030659000
   0.0000666000    0.0004909700   -0.0000250300
   0.0001034500   -0.0001832400    0.0003154900
  -0.0016157300   -0.0002650500    0.0005451800
   0.0007678100   -0.0002954400   -0.0001297600
  -0.0011682600   -0.0004799200   -0.0000896500
   0.0005816900   -0.0000869700    0.0001204500
   0.0001307300   -0.0002418600    0.0001529800
  -0.0001461700   -0.0001548400    0.0000442900
   0.0001163700   -0.0002194400    0.0001450100
  -0.0001296900   -0.0003406700    0.0000319000
   0.0001017300    0.0000798000   -0.0006817500
   0.0000567800    0.0003216900    0.0005449300
  -0.0000064700    0.0003503200   -0.0002983700
  -0.0000360500    0.0000558800    0.0002845700
   0.0001039400    0.0003120700   -0.0003705600
   0.0000544000    0.0001730400    0.0007766400
  -0.0000050200    0.0000996300   -0.0000492900
  -0.0000378700    0.0003033000    0.0003499600
   0.0072535000    0.0021419100    0.0005777400
  -0.0035880600    0.0018634700   -0.0003812100
   0.0007056700    0.0007600700    0.0001696800
  -0.0006065500   -0.0000542300   -0.0001073900
   0.0000349500    0.0001100100    0.0001128800
   0.0001813200    0.0000161200    0.0000988800
   0.0000603100    0.0000928900    0.0001057000
   0.0001642800    0.0001677000    0.0001106200
   0.0065103000   -0.0018257400    0.0017455600
  -0.0024725900   -0.0001396100    0.0013071800
   0.0005660000   -0.0003288700   -0.0001286800
  -0.0006626100    0.0001780900    0.0004784900
  -0.0002706100   -0.0000585800    0.0001122300
   0.0001261900   -0.0001390100    0.0011017700
  -0.0001269500   -0.0000577000    0.0001604500
   0.0000988600   -0.0000622000    0.0003117000
   0.0021159200   -0.0004396700    0.0018266000
  -0.0010505200   -0.0001258000   -0.0006093200
   0.0006078200    0.0000936500    0.0004520100
  -0.0002413300   -0.0001723200   -0.0000639400
  -0.0006659100   -0.0000167600    0.0005677700
   0.0014691100   -0.0005792000   -0.0010645300
  -0.0001472400   -0.0001303600    0.0001574200
   0.0004735400   -0.0000131100   -0.0000914300
   0.0001567800    0.0001159900    0.0003605500
  -0.0001863400    0.0000060700    0.0001845700
   0.0001377200    0.0000444800    0.0003465600
  -0.0001668000    0.0001181000    0.0001778700
  -0.0012976600   -0.0009525200    0.0010101900
   0.0009046700    0.0025453600   -0.0013392600
  -0.0006273800    0.0005967800    0.0005319000
   0.0004000900   -0.0010316300   -0.0006552900
  -0.0006659500   -0.0003932700    0.0002446300
   0.0007536400   -0.0009904900   -0.0008321000
  -0.0003842600   -0.0004972600    0.0000379500
   0.0002462700   -0.0002112500   -0.0002159500
   0.0006815100   -0.0008834700    0.0006237100
  -0.0005989300   -0.0004867000   -0.0004211300
   0.0001743700   -0.0001193500    0.0000362300
  -0.0003236200   -0.0004840200   -0.0002242900
   0.0153782400    0.0005630800    0.0007658000
  -0.0050716000   -0.0010181400   -0.0008313200
   0.0000421400    0.0003669000   -0.0002391600
  -0.0002623000    0.0005134600   -0.0001023600
  -0.0001978700    0.0003822400   -0.0000836300
   0.0000011000    0.0004455400   -0.0001060300
  -0.0001326300    0.0004758600   -0.0001022200
  -0.0000390400    0.0004355700   -0.0000984400
  -0.0004549900   -0.0001010800   -0.0000851800
   0.0002209700   -0.0001878500   -0.0011832300
  -0.0002741700   -0.0001078700   -0.0002122600
   0.0000254500   -0.0001833200   -0.0003564200
   0.0065151900   -0.0016698600   -0.0028264300
  -0.0015520600   -0.0002984700   -0.0009184600
   0.0003825100   -0.0005078500    0.0001060600
  -0.0005977900    0.0000374000   -0.0005656800
  -0.0000681300    0.0032073500    0.0011337200
  -0.0008684700   -0.0010761100   -0.0010808400
  -0.0001971900   -0.0015227000    0.0001738600
  -0.0005155100    0.0008956500   -0.0004415700
  -0.0002286100    0.0000645700   -0.0002408800
  -0.0000555900    0.0001482000   -0.0004056600
  -0.0002258500    0.0002099900   -0.0002348900
  -0.0000573400    0.0000694700   -0.0003842100
   0.0037788800    0.0038725000   -0.0062120000
   0.0036787900   -0.0023998400    0.0045165800
   0.0002001700   -0.0008630900   -0.0004294400
  -0.0001335200    0.0008552400    0.0002179900
   0.0000870000    0.0001441100   -0.0002847400
  -0.0000516500    0.0003586800    0.0001415000
  -0.0000822800    0.0002849000   -0.0001430000
  -0.0001219200    0.0001698500   -0.0000191000
   0.0001377300   -0.0002663500   -0.0002218000
  -0.0004738700   -0.0000827800    0.0000302900
   0.0001110300   -0.0001871700   -0.0002035300
  -0.0004435300   -0.0004627900    0.0000124100
  -0.0034518100    0.0001866200   -0.0012638900
   0.0014226500   -0.0004956300    0.0005898800
  -0.0022664800   -0.0008655400    0.0003211000
   0.0007758900   -0.0001133600   -0.0000023900
  -0.0037535400    0.0019516900    0.0012622800
   0.0020105800   -0.0001262400   -0.0007985400
  -0.0005879400    0.0002842400    0.0001174000
   0.0008920900    0.0002283900   -0.0002392700
   0.0015057000    0.0001996200    0.0003631700
  -0.0028805700    0.0015513500   -0.0004778400
   0.0007531600    0.0002738300    0.0001905900
  -0.0004222000    0.0002081000   -0.0001187500
   0.0074044100    0.0090975000    0.0000890600
   0.0073155900   -0.0121635100    0.0006267700
   0.0005358800   -0.0013538400   -0.0002160700
   0.0011709100    0.0011710000    0.0005899500
   0.0003253300   -0.0003330300   -0.0000312800
   0.0003549300   -0.0001784800   -0.0000219100
   0.0003066700   -0.0002751400   -0.0000028300
   0.0003239900   -0.0003855800   -0.0000405100

1    
 -0.0099999998526257   0.0000000000000000  -0.0000017168245014
   0.0436476900    0.0002265300    0.0002026900
  -0.0024102600   -0.0002899900    0.0000210600
   0.0003850200   -0.0002504900    0.0000442400
  -0.0003829200   -0.0002099000    0.0000622700
  -0.0001802200   -0.0001932300    0.0001007700
   0.0001363400   -0.0002837500    0.0001136300
  -0.0001259900   -0.0001979300    0.0000963500
   0.0000229100   -0.0002000100    0.0001020900
  -0.0000356000    0.0001249900    0.0003701500
  -0.0000668800    0.0002712800   -0.0000014300
   0.0000051600    0.0002401300    0.0002249400
   0.0000007100    0.0002029400    0.0000988000
  -0.0022495000    0.0016958800    0.0028217300
  -0.0021875000   -0.0013876500   -0.0027955100
  -0.0000391800   -0.0000418800    0.0002727200
  -0.0000789400    0.0006303400   -0.0000664100
   0.0016335000   -0.0001690200   -0.0002892300
  -0.0007432700   -0.0001547400    0.0003768700
   0.0011886400    0.0000173800    0.0003443300
  -0.0005575700   -0.0003583100    0.0001269100
  -0.0001055300   -0.0002063100    0.0000958500
   0.0001689800   -0.0002918900    0.0002023700
  -0.0000914500   -0.0002281400    0.0001039900
   0.0001528800   -0.0001094700    0.0002145700
  -0.0002147800    0.0003296900    0.0008461300
  -0.0001654200    0.0000865000   -0.0003793300
  -0.0001062900    0.0000602400    0.0004643400
  -0.0000740700    0.0003529900   -0.0001182500
  -0.0002125500    0.0000971600    0.0005405900
  -0.0001678200    0.0002373700   -0.0006054400
  -0.0001046100    0.0003087500    0.0002179700
  -0.0000754800    0.0001069100   -0.0001808900
  -0.0070309300   -0.0020762300   -0.0004031200
   0.0038428700   -0.0016697200    0.0005526900
  -0.0004670600   -0.0005564200    0.0000019900
   0.0008540700    0.0002496700    0.0002789700
   0.0002115500    0.0000875000    0.0000607200
   0.0000658400    0.0001793300    0.0000743400
   0.0001866500    0.0001037600    0.0000666000
   0.0000823000    0.0000302400    0.0000634300
  -0.0065194400    0.0016999100   -0.0013758800
   0.0024373400   -0.0000022200   -0.0008772700
  -0.0005999100    0.0001870200    0.0005513000
   0.0006274900   -0.0003180700   -0.0000532900
   0.0002365400   -0.0000833100    0.0003097300
  -0.0001593400   -0.0000015900   -0.0006606200
   0.0000928100   -0.0000841600    0.0002624600
  -0.0001326600   -0.0000779400    0.0001144400
  -0.0018535600    0.0002431600   -0.0016434000
   0.0012938900   -0.0000702200    0.0007913100
  -0.0003575900   -0.0002894700   -0.0002773400
   0.0004886200   -0.0000238400    0.0002381700
   0.0009068900   -0.0001812500   -0.0004028000
  -0.0012080200    0.0003811000    0.0012314600
   0.0003911200   -0.0000664600    0.0000143000
  -0.0002217500   -0.0001826700    0.0002636400
  -0.0001879200    0.0000252700    0.0000627700
   0.0001495800    0.0001340300    0.0002417500
  -0.0001704400    0.0000954500    0.0000784100
   0.0001324200    0.0000225200    0.0002467400
   0.0012518600    0.0011034000   -0.0005864200
  -0.0009327800   -0.0023899200    0.0017519300
   0.0005899300   -0.0004618500   -0.0001121400
  -0.0004270500    0.0011658700    0.0010738300
   0.0005054400   -0.0004933900   -0.0004786100
  -0.0009120600    0.0000937000    0.0005862800
   0.0002236600   -0.0003925400   -0.0002727800
  -0.0004053900   -0.0006754300   -0.0000226000
  -0.0008410100   -0.0000139200   -0.0008540700
   0.0004389800   -0.0003989000    0.0001824900
  -0.0003339100   -0.0007645700   -0.0002706000
   0.0001635500   -0.0004057900   -0.0000137300
  -0.0141337200    0.0001790600   -0.0010088600
   0.0049757200    0.0019403600    0.0006058700
  -0.0002003900    0.0005200600    0.0000016000
   0.0000990500    0.0003737300   -0.0001350900
   0.0000347000    0.0005054400   -0.0001523800
  -0.0001591400    0.0004422500   -0.0001304200
  -0.0000286600    0.0004116800   -0.0001341100
  -0.0001201000    0.0004518400   -0.0001381700
   0.0001782000   -0.0001409800   -0.0005431200
  -0.0004953300   -0.0000505200    0.0005364400
  -0.0000029400   -0.0001311500   -0.0004188900
  -0.0003015900   -0.0000569800   -0.0002761600
  -0.0067608800    0.0014452100    0.0022392400
   0.0012761600    0.0000562700    0.0002819100
  -0.0006580400    0.0002649200   -0.0007366300
   0.0003199400   -0.0002773600   -0.0000663700
  -0.0002057700   -0.0029492100   -0.0017559600
   0.0005798100    0.0013281700    0.0004481500
  -0.0000746500    0.0017535200   -0.0008046000
   0.0002335600   -0.0006631900   -0.0001879100
  -0.0000502400    0.0001753200   -0.0003910600
  -0.0002190400    0.0000929300   -0.0002251100
  -0.0000528600    0.0000311000   -0.0003958700
  -0.0002176900    0.0001700700   -0.0002478800
  -0.0040013900   -0.0033978400    0.0059797100
  -0.0039433000    0.0028899900   -0.0047783000
  -0.0004536900    0.0013100300    0.0002342200
  -0.0001158200   -0.0004040000   -0.0004108700
  -0.0003331900    0.0003091500    0.0000909400
  -0.0002047100    0.0000934800   -0.0003354400
  -0.0001694500    0.0001675800   -0.0000506600
  -0.0001328600    0.0002818700   -0.0001752000
  -0.0003902600   -0.0001847900    0.0000256100
   0.0002171500   -0.0003648900   -0.0002219800
  -0.0003635400   -0.0002614400    0.0000079100
   0.0001868200    0.0000088400   -0.0002049300
   0.0031823900   -0.0006161500    0.0010581300
  -0.0016759300    0.0000422900   -0.0007813200
   0.0020018400    0.0003850200   -0.0005226100
  -0.0010296900   -0.0003330200   -0.0001897000
   0.0042901000   -0.0013468600   -0.0011696100
  -0.0014454500    0.0007166800    0.0008359300
   0.0011504700    0.0003070500   -0.0000694900
  -0.0003238700    0.0003627700    0.0002862700
  -0.0009376400    0.0003894300   -0.0003061500
   0.0034207100   -0.0009459100    0.0004814000
  -0.0001845200    0.0003191800   -0.0001400500
   0.0009846000    0.0003814600    0.0001664300
  -0.0068436600   -0.0098491100   -0.0000395200
  -0.0066765200    0.0115216300   -0.0005751300
   0.0000438500    0.0007680100    0.0002666000
  -0.0006048800   -0.0017594700   -0.0005378500
   0.0002392400   -0.0002609400    0.0000795500
   0.0002146700   -0.0004141900    0.0000687400
   0.0002589200   -0.0003176800    0.0000513200
   0.0002449400   -0.0002091000    0.0000875000

1    
  0.0000000000000000   0.0100000000000000   0.0000000000000000
  -0.0000029300   -0.0429825400    0.0005911800
   0.0000273100   -0.0005087200    0.0000970200
  -0.0000103800    0.0009673200    0.0001424100
  -0.0000522100    0.0001635100    0.0001038400
  -0.0000686300   -0.0002750300    0.0000686000
   0.0000224100   -0.0004893800    0.0000614600
  -0.0000643800   -0.0001211500    0.0000829700
  -0.0000616900   -0.0000772000    0.0000782600
   0.0001126000    0.0001987800    0.0000382800
  -0.0002102500    0.0001583100    0.0000045000
   0.0000245900    0.0002825700    0.0001905000
   0.0000076000    0.0002939000    0.0002107700
  -0.0016268000   -0.0005677000    0.0004542200
   0.0015106600   -0.0006060100    0.0004084600
   0.0001980300    0.0010254200   -0.0000085700
  -0.0000868800    0.0008853600    0.0001172500
  -0.0003234800    0.0025532500    0.0029806200
   0.0002950400   -0.0001982400    0.0003225500
  -0.0000747500    0.0024245400   -0.0021866300
  -0.0000334200   -0.0002994000    0.0000213100
   0.0000277900   -0.0002116800    0.0000105400
  -0.0000304200   -0.0001434000   -0.0001035900
  -0.0000083100   -0.0002343500    0.0001289600
   0.0000510200   -0.0000626000    0.0002973500
  -0.0001637700   -0.0001277300    0.0005306500
  -0.0000250300   -0.0001741200    0.0006498200
   0.0000484500    0.0004646600   -0.0002053100
  -0.0001545900    0.0004806500   -0.0000914700
   0.0000677100   -0.0001290800   -0.0005233800
  -0.0001736500   -0.0001733200   -0.0004367800
  -0.0002021300    0.0004639700    0.0002556200
   0.0000924700    0.0004816200    0.0004280700
   0.0018466600    0.0137018100    0.0009849900
   0.0000581900    0.0006019000   -0.0000070100
   0.0015012600   -0.0022931400   -0.0000541000
  -0.0003519000   -0.0001978100    0.0000873200
   0.0000906500    0.0002010900    0.0000956100
   0.0001241000    0.0002852600    0.0000921400
   0.0000683900    0.0000108700    0.0000902100
   0.0002145600   -0.0001098700    0.0001022800
  -0.0013864500    0.0081792700   -0.0034054900
  -0.0000039400    0.0003169100   -0.0001054900
   0.0001243900   -0.0013721600   -0.0004658000
   0.0000336200   -0.0005818400    0.0000497200
  -0.0001040500    0.0000855600    0.0002932800
   0.0000552100    0.0003431500   -0.0012033900
  -0.0000364200   -0.0002111100    0.0003206400
  -0.0000079200   -0.0003978200    0.0004171300
  -0.0007567100    0.0008537600    0.0002457400
   0.0008419000    0.0004813100    0.0002125900
   0.0001218600   -0.0005915500   -0.0000694400
   0.0000325800   -0.0005276700   -0.0001041000
   0.0005684200    0.0004243900    0.0001718900
  -0.0008539500    0.0009621200   -0.0004014800
   0.0001077800   -0.0004836700    0.0002351500
   0.0002051000   -0.0006294400    0.0002495100
   0.0000140700    0.0001643000    0.0000995900
  -0.0000270400    0.0001551200    0.0000689800
  -0.0001538800   -0.0000766100    0.0003256200
   0.0000924200   -0.0000394200    0.0002652200
  -0.0028799300   -0.0005393000    0.0018990400
   0.0016702400   -0.0002354200    0.0006239600
   0.0008273000   -0.0001605500   -0.0000339000
  -0.0013282300   -0.0011427700   -0.0000543900
  -0.0000262100   -0.0000366700   -0.0003963800
  -0.0000917100    0.0013226900   -0.0010866200
  -0.0001922200   -0.0007816600   -0.0000420400
  -0.0001011800   -0.0013054200    0.0001038600
   0.0000207200    0.0019858700    0.0014507000
  -0.0001413600    0.0001572200    0.0003158400
  -0.0000002400   -0.0018491800   -0.0006340800
  -0.0001721700   -0.0008580600   -0.0002641500
   0.0003733600    0.0070888500   -0.0003904600
  -0.0012791200    0.0037128400   -0.0005846600
  -0.0000837100   -0.0009106400    0.0000186000
   0.0003303300   -0.0009152000   -0.0000068000
   0.0000252200    0.0007316400   -0.0001325400
  -0.0001981500    0.0007096000   -0.0001446800
  -0.0000433500    0.0002117300   -0.0000862300
  -0.0000872900    0.0002205400   -0.0000837100
  -0.0001297500   -0.0000327900   -0.0003450400
  -0.0002522100    0.0000163100    0.0010656300
  -0.0001551700   -0.0002265100   -0.0003982700
  -0.0001120900   -0.0002949000   -0.0004556800
  -0.0019177600    0.0079724400    0.0025005600
  -0.0001712400    0.0003782600   -0.0001794300
  -0.0000092100   -0.0022300700    0.0007730800
  -0.0002092700   -0.0008249200   -0.0000784400
   0.0013302300   -0.0006708600   -0.0009844900
  -0.0023390000   -0.0007609900   -0.0020801100
  -0.0014952700   -0.0006433800    0.0001762400
   0.0005727500   -0.0000756500   -0.0001959900
  -0.0001506200    0.0001530300   -0.0000973800
  -0.0000914900    0.0001929400   -0.0001263200
  -0.0000283000    0.0000346900   -0.0003851800
  -0.0002624700    0.0000197300   -0.0004484100
   0.0021709200   -0.0014065900   -0.0003041600
  -0.0033813300   -0.0010595300   -0.0001516000
  -0.0002638700    0.0014793700   -0.0000914600
   0.0000607600    0.0018261200    0.0000882100
  -0.0006292700    0.0000706300    0.0000587300
   0.0000964900    0.0001832200    0.0000899700
  -0.0001085600    0.0004015800   -0.0002690900
  -0.0001010800    0.0003647100   -0.0002435200
  -0.0000897900   -0.0002305900    0.0000244600
  -0.0001660800   -0.0001340700    0.0000898600
  -0.0001731900   -0.0002215600   -0.0000897300
  -0.0000300500    0.0001764200   -0.0002926200
  -0.0014473200    0.0044634700   -0.0058494800
   0.0006761100   -0.0001007100   -0.0004565500
  -0.0001218400    0.0047489100    0.0035517300
  -0.0002750600   -0.0004452800    0.0001496200
   0.0018683200   -0.0041621500   -0.0012453200
   0.0000590000   -0.0001779900    0.0002688500
   0.0002379500    0.0013982400    0.0005485200
   0.0004062800    0.0008796400    0.0002741100
   0.0001557000   -0.0004343200   -0.0001614500
   0.0015334200   -0.0051919500    0.0020155700
   0.0003116600    0.0010195600   -0.0003360800
   0.0001417900    0.0019755600   -0.0008739100
   0.0123950900   -0.0005904500    0.0004683500
  -0.0064860700    0.0003701500    0.0003817100
  -0.0022598900    0.0012194900    0.0000660400
   0.0015640800    0.0018158300   -0.0002289900
   0.0003322000   -0.0007053000   -0.0000223700
   0.0002785300   -0.0007299700   -0.0000550000
   0.0003962300    0.0000407600    0.0000154600
   0.0001165300    0.0000263800    0.0000572400

1    
  0.0000000000000000  -0.0100000000000000   0.0000000000000000
   0.0005724800    0.0437096500   -0.0004467000
  -0.0001425500    0.0000867900    0.0000710900
  -0.0000998300   -0.0013793400    0.0000242900
  -0.0000609000   -0.0005848300    0.0000645600
  -0.0000444100   -0.0001448500    0.0001004400
  -0.0001351200    0.0000706400    0.0001077100
  -0.0000474900   -0.0003007000    0.0000867100
  -0.0000503900   -0.0003434700    0.0000899500
  -0.0000913000    0.0002397600    0.0002127000
   0.0002347700    0.0002821300    0.0002477600
  -0.0000007100    0.0001601400    0.0000584000
   0.0000138800    0.0001474800    0.0000377300
   0.0016568000    0.0009978300   -0.0002055500
  -0.0014923300    0.0010296800   -0.0001614500
  -0.0001771500   -0.0005833200    0.0002583700
   0.0001106900   -0.0004454800    0.0001340500
   0.0003404000   -0.0030230000   -0.0027526000
  -0.0002729400   -0.0002405600   -0.0000719900
   0.0000926200   -0.0028410700    0.0023960500
   0.0000559400   -0.0001433300    0.0002282400
  -0.0000050900   -0.0002278000    0.0002388700
   0.0000520400   -0.0002957100    0.0003545900
   0.0000295400   -0.0002067400    0.0001221900
  -0.0000295500   -0.0003811400   -0.0000469000
   0.0000511700    0.0005494600   -0.0003624200
  -0.0000876400    0.0005946300   -0.0004819800
  -0.0001604800   -0.0000479600    0.0003705000
   0.0000427900   -0.0000667700    0.0002589600
  -0.0001803600    0.0005486200    0.0006938400
   0.0000621600    0.0005964800    0.0006066700
   0.0000896100   -0.0000483200   -0.0000848500
  -0.0002042200   -0.0000620800   -0.0002547300
  -0.0020965300   -0.0146088100   -0.0008074400
   0.0001918300   -0.0004189600    0.0001804100
  -0.0012344100    0.0024669100    0.0002213900
   0.0005891000    0.0003951200    0.0000837800
   0.0001538800   -0.0000031300    0.0000726500
   0.0001168700   -0.0000903600    0.0000802400
   0.0001665300    0.0001861900    0.0000818800
   0.0000342200    0.0003093600    0.0000672000
   0.0012930000   -0.0082693500    0.0036567200
  -0.0000232200   -0.0004446000    0.0005424500
  -0.0001519900    0.0012375300    0.0009069700
  -0.0000634000    0.0004486400    0.0003906500
   0.0000744200   -0.0002167200    0.0001478200
  -0.0000865700   -0.0004756800    0.0016589000
   0.0000073200    0.0000801000    0.0001207800
  -0.0000190700    0.0002648700    0.0000213200
   0.0010058500   -0.0010530700   -0.0000824700
  -0.0006023200   -0.0006806800   -0.0000443800
   0.0001231900    0.0003924900    0.0002418800
   0.0002115700    0.0003279900    0.0002753400
  -0.0003247200   -0.0006234100   -0.0000012000
   0.0011021100   -0.0011614700    0.0005813600
   0.0001368400    0.0002847400   -0.0000667100
   0.0000356200    0.0004301500   -0.0000810400
  -0.0000443800   -0.0000340000    0.0003371600
  -0.0000018000   -0.0000269200    0.0003724400
   0.0001268700    0.0002106500    0.0001115300
  -0.0001241600    0.0001686100    0.0001786300
   0.0028571400    0.0006713300   -0.0014590700
  -0.0017140800    0.0003589100   -0.0001823200
  -0.0008528900    0.0002931200    0.0004734100
   0.0012887600    0.0012681500    0.0004886500
  -0.0001370200   -0.0008622200    0.0001604000
  -0.0000684300   -0.0022226400    0.0008544900
   0.0000304100   -0.0001111400   -0.0001930800
  -0.0000597100    0.0004135200   -0.0003356700
  -0.0001806600   -0.0028879400   -0.0016982300
  -0.0000196600   -0.0010524000   -0.0005536200
  -0.0001578700    0.0009561300    0.0003895300
   0.0000104800   -0.0000366500    0.0000247200
  -0.0005963400   -0.0062103500    0.0001516800
   0.0011081500   -0.0028331700    0.0003481800
  -0.0000806000    0.0017988800   -0.0002538100
  -0.0004860000    0.0018045200   -0.0002289300
  -0.0001897800    0.0001643500   -0.0001035000
   0.0000391200    0.0001787900   -0.0000932500
  -0.0001186500    0.0006839200   -0.0001514700
  -0.0000734000    0.0006683200   -0.0001533800
  -0.0001503200   -0.0002062400   -0.0002981800
  -0.0000292600   -0.0002566900   -0.0017250100
  -0.0001234600   -0.0000174500   -0.0002402900
  -0.0001679500    0.0000527200   -0.0001860200
   0.0015740500   -0.0081696100   -0.0029525000
  -0.0001074900   -0.0006141800   -0.0004618200
  -0.0002697100    0.0019899500   -0.0014197300
  -0.0000705200    0.0005825700   -0.0005631000
  -0.0016237400    0.0009068800    0.0003444100
   0.0020621000    0.0010026600    0.0014364400
   0.0012003400    0.0008823900   -0.0008074700
  -0.0008510700    0.0003246300   -0.0004417600
  -0.0001286500    0.0000855900   -0.0005457900
  -0.0001893900    0.0000462000   -0.0005177600
  -0.0002542400    0.0002051000   -0.0002622300
  -0.0000151300    0.0002245800   -0.0001902000
  -0.0024326800    0.0018215300    0.0001164100
   0.0031461400    0.0014916200   -0.0000437000
   0.0000116200   -0.0010292700   -0.0001082700
  -0.0003150900   -0.0013716400   -0.0002866100
   0.0003799400    0.0003790400   -0.0002573600
  -0.0003525500    0.0002634100   -0.0002889700
  -0.0001464400    0.0000495200    0.0000742200
  -0.0001519900    0.0000868700    0.0000482300
  -0.0001646800   -0.0002174900   -0.0002204200
  -0.0000871200   -0.0003132300   -0.0002868100
  -0.0000803200   -0.0002303400   -0.0001073500
  -0.0002257300   -0.0006330700    0.0000966600
   0.0011898200   -0.0049538400    0.0056884400
  -0.0009308400   -0.0003445300    0.0002571100
  -0.0001376800   -0.0051710100   -0.0036857100
   0.0000204500   -0.0000083600   -0.0003443600
  -0.0013011600    0.0047798300    0.0013344700
   0.0005145000    0.0007696200   -0.0002206100
   0.0003339400   -0.0008100200   -0.0005058000
   0.0001641200   -0.0002900900   -0.0002308200
   0.0004158300    0.0010230400    0.0002058100
  -0.0009626100    0.0058111200   -0.0020144500
   0.0002597400   -0.0004307900    0.0003834000
   0.0004312700   -0.0013850600    0.0009280700
  -0.0118490400   -0.0000036800   -0.0004268000
   0.0071136400   -0.0009104400   -0.0003401100
   0.0027962200   -0.0018110000   -0.0000250700
  -0.0009754700   -0.0023951000    0.0002711600
   0.0002383600    0.0001180300    0.0000712800
   0.0002937300    0.0001417500    0.0001025300
   0.0001762600   -0.0006340400    0.0000304100
   0.0004542500   -0.0006179500   -0.0000114900

1    
 -0.0062000798005776   0.0000000000000000   0.0078459550385195
   0.0273167800    0.0001139100   -0.0369590200
  -0.0014641100   -0.0002474500   -0.0002393000
   0.0002490000   -0.0001865800   -0.0002520500
  -0.0002413600   -0.0001915600   -0.0000968700
  -0.0001473400   -0.0002094600    0.0004147400
   0.0000394300   -0.0002711900    0.0010153100
  -0.0001094900   -0.0002007400    0.0002402100
  -0.0000214300   -0.0002061200    0.0003954100
  -0.0002239000   -0.0000089400    0.0008872800
   0.0003341800    0.0001984200    0.0005829900
  -0.0000233300    0.0002913200    0.0003252200
   0.0000977500    0.0002557300    0.0002432100
  -0.0037811300    0.0015229500    0.0015279100
   0.0006213900   -0.0004562400   -0.0019377300
  -0.0001356300    0.0000586100    0.0000740100
   0.0000152100    0.0003830900   -0.0001320600
   0.0011815700    0.0017563200   -0.0003191300
  -0.0004852500   -0.0001354800    0.0001318800
   0.0004733500   -0.0022725000   -0.0000168100
  -0.0002559000   -0.0004430400   -0.0000063700
  -0.0000626000   -0.0002420200    0.0002536500
   0.0002241300   -0.0005108300    0.0007729200
  -0.0000617700   -0.0001267000    0.0002451300
   0.0001843500    0.0002335100    0.0007206000
  -0.0005098700    0.0007563700    0.0006758700
   0.0004168800    0.0005404100   -0.0000876700
  -0.0001920200   -0.0000190000    0.0004191100
   0.0001408000    0.0000277300    0.0000984800
  -0.0007556300   -0.0002146000    0.0004865500
   0.0002379500   -0.0002204300   -0.0002320800
  -0.0003861600    0.0004950700    0.0002659300
   0.0000899900    0.0002808500    0.0000582900
  -0.0038987800   -0.0011100100    0.0044100100
   0.0024692400   -0.0011085200    0.0007144100
   0.0001345200   -0.0005464800    0.0015140800
   0.0005419000    0.0001480000    0.0008131200
   0.0001320700    0.0001457200   -0.0003046800
  -0.0000637100    0.0002264200   -0.0008690000
   0.0001064300    0.0001414800   -0.0002874600
  -0.0000205600    0.0001494200   -0.0005663800
  -0.0032395200   -0.0013209600    0.0070823000
   0.0014906100   -0.0000434900   -0.0000994200
  -0.0004742100    0.0000190200    0.0007856900
   0.0004448100   -0.0002882600    0.0001605200
   0.0000168400   -0.0001671600   -0.0000509300
   0.0003439800   -0.0002630500   -0.0028921300
   0.0000378400   -0.0000869000    0.0000969700
  -0.0000094000   -0.0001673900   -0.0002687900
   0.0006686500   -0.0000314900   -0.0020514500
  -0.0004888000   -0.0003692600    0.0000577400
  -0.0000269600   -0.0001353900   -0.0001060100
   0.0002819700    0.0000252300    0.0001787100
   0.0015531800   -0.0000340800   -0.0004862000
  -0.0026821200    0.0004269100   -0.0009877500
   0.0004023500   -0.0001613500    0.0000082700
  -0.0003267100   -0.0003039800    0.0000866200
   0.0002069800   -0.0000163600   -0.0005737500
  -0.0000287200    0.0000859400   -0.0002519400
   0.0001625000    0.0004216900   -0.0004869900
  -0.0000166700    0.0002832500   -0.0002634200
   0.0007054600    0.0006268000    0.0003642800
  -0.0012886900   -0.0012707200    0.0020960000
   0.0009405000   -0.0007907600    0.0007239600
  -0.0014539100   -0.0003509800    0.0017851200
   0.0002735500   -0.0008129100   -0.0004211700
  -0.0007028800   -0.0021175700   -0.0015810800
   0.0001325600   -0.0003040500   -0.0002822500
  -0.0002096000    0.0001995800   -0.0002676300
  -0.0004474800    0.0016489600   -0.0016154200
   0.0001825700   -0.0001406200    0.0001534600
  -0.0002520700   -0.0019675600   -0.0006825900
   0.0000228800   -0.0005300300   -0.0000927900
  -0.0086168700   -0.0000291800    0.0042242400
   0.0030329300    0.0009494700    0.0021508800
  -0.0001919000    0.0003693500    0.0005377900
   0.0001072100    0.0003765800    0.0002768900
   0.0000287200    0.0006603800   -0.0008045700
  -0.0001201700    0.0006329200   -0.0010828100
  -0.0000510100    0.0004734600   -0.0004364000
  -0.0001030500    0.0004872800   -0.0005020700
   0.0000157600    0.0000736400   -0.0008903000
  -0.0004706000    0.0004462400   -0.0023175300
  -0.0000547900   -0.0001543000   -0.0005179200
  -0.0002554800   -0.0002455200   -0.0005751400
  -0.0062251000    0.0028623000    0.0097610500
   0.0006894100   -0.0000138200    0.0004418700
  -0.0003633900    0.0001735600   -0.0002182800
   0.0001001000   -0.0002140900   -0.0000356800
   0.0004759000   -0.0023197600   -0.0004916000
   0.0004667700    0.0007817600    0.0007675400
   0.0006100500    0.0021062600    0.0003548000
  -0.0004766900    0.0007444300    0.0006822400
  -0.0000022500    0.0001741500   -0.0008299100
  -0.0004021800    0.0002117100   -0.0008500300
   0.0000309100   -0.0002556800   -0.0008867300
  -0.0003999800   -0.0002406700   -0.0009492700
  -0.0056067800   -0.0029064300    0.0031509500
   0.0024888500    0.0011477900   -0.0037246500
  -0.0003902400    0.0011881100   -0.0001658600
  -0.0000222100   -0.0001127200   -0.0005557200
  -0.0011287800    0.0003678700    0.0009133400
   0.0003056800    0.0005485700    0.0010005600
  -0.0003612000    0.0001422300    0.0001993300
  -0.0000467500    0.0002165700    0.0001554500
  -0.0002961800   -0.0000942100    0.0003121900