128  
48   

1    
  0.0100000000000000   0.0000000000000000   0.0000000000000000
  -0.2897644200   -0.0123126900    0.0098904000
   0.0020498800   -0.0001026400   -0.0000436900
  -0.0015507300    0.0002384700    0.0001167700
  -0.0000537300    0.0002142300    0.0000044400
   0.0064831600   -0.0044204800   -0.0202207200
   0.0021826100   -0.0015468100    0.0004189900
  -0.0005921700   -0.0005087200   -0.0001776000
   0.0002035000   -0.0009143000    0.0001126400
  -0.0200408800    0.0043610400    0.0004978800
   0.0023619500    0.0005067700   -0.0002872700
  -0.0004341800    0.0015498800    0.0002014900
   0.0008891100    0.0009129300   -0.0000061700
   0.0011893100    0.0018669500   -0.0016705800
   0.0021770000   -0.0004212300    0.0001915600
   0.0002058900   -0.0005417300   -0.0000069200
   0.0011463200    0.0006129800   -0.0000552800
   0.0372537800   -0.0066119600   -0.0369353800
   0.0044388800    0.0011983700   -0.0002106000
   0.0003904200    0.0009869100   -0.0003571300
   0.0013768400    0.0010918300   -0.0005290400
   0.0038991300   -0.0083011800   -0.0077754400
   0.0003324300    0.0011524200   -0.0011521400
  -0.0009763600    0.0018571600    0.0000974400
  -0.0009316400    0.0000475700   -0.0009847700
   0.0009664600    0.0000657400   -0.0004152800
   0.0013710400   -0.0013597000   -0.0002618600
   0.0008146400   -0.0013978800   -0.0016854600
   0.0011177200   -0.0007126300    0.0003117800
   0.0012494200   -0.0000443800   -0.0028658100
  -0.0011184200   -0.0016000900    0.0010317600
  -0.0005812800   -0.0011466700   -0.0006074800
  -0.0009695000   -0.0008280300   -0.0005254900
  -0.0034216500   -0.0015388100    0.0010370400
  -0.0019393300   -0.0003020100   -0.0023205900
  -0.0006585700   -0.0013474400   -0.0010888600
  -0.0009557400   -0.0014706400   -0.0011742700
   0.0019590200   -0.0021169700   -0.0008142400
   0.0008433700   -0.0004090800   -0.0014533400
   0.0019372900   -0.0005668600   -0.0005021900
   0.0004822800   -0.0014321600   -0.0018146700
   0.0444835000   -0.0071236600   -0.0040789700
  -0.0028298900    0.0009316700   -0.0006897800
  -0.0007168100    0.0005401600   -0.0017306900
  -0.0019409200    0.0009142400   -0.0007279400
   0.0090429000    0.0061069800    0.0161649200
  -0.0013619700    0.0011167300   -0.0019798700
   0.0012889800    0.0011803800   -0.0012223600
   0.0001714900    0.0014902700   -0.0011751800
   0.0030013700   -0.0013756200    0.0092252000
  -0.0010824700    0.0010678900   -0.0005987400
   0.0010455900    0.0004565000   -0.0003083100
  -0.0001015800    0.0005390500   -0.0001536700
   0.0022716700   -0.0001916100   -0.0037485800
  -0.0019127100    0.0004509600   -0.0002339400
  -0.0001035900    0.0002299900   -0.0000703200
  -0.0010643500    0.0000735200   -0.0003263100
   0.0559407400    0.0190869600   -0.0286783500
  -0.0009579500   -0.0002842800   -0.0001138900
   0.0011727100   -0.0003210900   -0.0002243200
   0.0001225400   -0.0004888900   -0.0002781000
   0.0605370200    0.0062253700    0.0303747400
  -0.0021634400   -0.0003317400   -0.0000779200
   0.0003157400   -0.0007607700   -0.0003714000
  -0.0009522900   -0.0007106600   -0.0002494600
  -0.0012412600    0.0001995100    0.0022091900
  -0.0020126200    0.0015059400    0.0009632000
  -0.0009119100    0.0013248500    0.0014581300
  -0.0012065400    0.0008366600    0.0013968800
   0.0025701100   -0.0039761400   -0.0004977100
  -0.0021576000   -0.0009423000    0.0016846400
   0.0000282600   -0.0020699700    0.0025797200
  -0.0015843600   -0.0012559500    0.0010060100
   0.0012432300    0.0057321200    0.0069220700
  -0.0007193300    0.0010599800    0.0011130600
   0.0012707900    0.0004052700    0.0014536300
   0.0009134000    0.0015104000    0.0015061900
   0.0951569300   -0.0099274300    0.0080174400
  -0.0019278600   -0.0011802700    0.0017962700
   0.0017852600   -0.0011120400    0.0013069600
   0.0003920400   -0.0012488400    0.0015258600
   0.0029879100    0.0003077800    0.0003901800
   0.0005485100   -0.0001050900    0.0011127500
   0.0025490400   -0.0001930600    0.0007887900
   0.0020473800    0.0001350400    0.0005666300
   0.0020721000    0.0032241800    0.0011159300
  -0.0015939300    0.0019646600    0.0004634200
   0.0007410000    0.0014072600    0.0009741300
  -0.0006659000    0.0026280500    0.0004335900
   0.0020225200   -0.0036199600    0.0016791500
  -0.0011178500   -0.0018490600    0.0003213200
  -0.0029863800    0.0024661700    0.0024286700
  -0.0012638400   -0.0029664100    0.0009391700
  -0.0058972900    0.0005490500    0.0003618700
  -0.0224277700   -0.0000380700    0.0062792500
  -0.0028141200    0.0001666500    0.0006545100
  -0.0020219000   -0.0001221000    0.0007384700
  -0.0037418100    0.0029737500   -0.0023790200
   0.0021730100   -0.0009647600   -0.0003484900
  -0.0004037600   -0.0014039700   -0.0009160100
   0.0019952400   -0.0009417400   -0.0005253400
   0.0040845300   -0.0006772600   -0.0012558600
   0.0110981400    0.0064588200    0.0070426400
   0.0011935600    0.0012430500   -0.0006143300
   0.0009461000    0.0008948000   -0.0006721400
  -0.0003057500   -0.0027632400   -0.0021562500
  -0.0004431200   -0.0009858300   -0.0004898800
  -0.0013568300   -0.0006923100   -0.0005580600
  -0.0006343500   -0.0013726100   -0.0007301800
  -0.0010627600    0.0016547600   -0.0008453800
  -0.0006386100    0.0008443900   -0.0007327000
  -0.0010031700   -0.0002060100   -0.0017884000
   0.0003251000    0.0020889600   -0.0000684200
  -0.0041120700   -0.0017973900    0.0002273100
   0.0001377700   -0.0016006400    0.0002349300
  -0.0017451600   -0.0014684600    0.0004610100
  -0.0007943500   -0.0013640600    0.0003428500
   0.0040263500   -0.0037454300    0.0058916500
   0.0043860100   -0.0003320900   -0.0010193300
   0.0010594500   -0.0009279300    0.0004266300
   0.0018210700   -0.0013530500    0.0004155100
  -0.0096613600   -0.0008092700    0.0031048500
   0.0000506900    0.0012588100    0.0005166000
  -0.0027827300    0.0010288400    0.0002982900
  -0.0006280500    0.0014322500    0.0004537400
   0.0081397000    0.0129718600    0.0029938500
   0.0039166400   -0.0005495500    0.0012798900
   0.0011454800    0.0006018500    0.0007448300
   0.0014979400    0.0021560900    0.0002791500

1    
 -0.0100000000000000   0.0000000000000000   0.0000000000000000
   0.2764466800    0.0151053900   -0.0114364500
  -0.0036536400    0.0003260700    0.0000811200
  -0.0000514600   -0.0000226200   -0.0000764300
  -0.0015456200    0.0000040600    0.0000350000
  -0.0066811500    0.0027415900    0.0203796100
  -0.0023972500   -0.0000505200   -0.0003781000
   0.0003710300   -0.0010965500    0.0002158300
  -0.0004241500   -0.0006885100   -0.0000735400
   0.0200269200   -0.0028009800   -0.0004950500
  -0.0021437200    0.0010944600    0.0003257700
   0.0006559300    0.0000541200   -0.0001616800
  -0.0006649000    0.0006870400    0.0000458300
   0.0004202800   -0.0020818300    0.0017129500
  -0.0005725400    0.0002001800   -0.0001518300
   0.0013925800    0.0003176500    0.0000451300
   0.0004539000   -0.0008345700    0.0000946300
  -0.0348518900    0.0085143700    0.0359004100
  -0.0028724600    0.0007825200   -0.0007750400
   0.0012002300    0.0009952200   -0.0006249400
   0.0002108100    0.0008904600   -0.0004551700
  -0.0058067900    0.0099446200    0.0067808800
  -0.0023189100    0.0004433900    0.0001689900
  -0.0010048600   -0.0002658500   -0.0010767200
  -0.0010505800    0.0015391400    0.0000018100
   0.0010185200   -0.0016466200   -0.0005693800
   0.0006125300   -0.0002369900   -0.0007201100
   0.0011669800   -0.0002082100    0.0006986000
   0.0008649000   -0.0008719400   -0.0012943000
  -0.0028372600   -0.0019360400    0.0018854200
  -0.0004801800   -0.0003836600   -0.0020104700
  -0.0010006900   -0.0008364100   -0.0003754300
  -0.0006284800   -0.0011552100   -0.0004555000
   0.0017245600   -0.0011945000   -0.0034002100
   0.0002608500   -0.0024468000   -0.0000423200
  -0.0010133900   -0.0014022100   -0.0012681300
  -0.0007185500   -0.0012807200   -0.0011833000
   0.0007939300    0.0004420300   -0.0015426600
   0.0019083100   -0.0012636100   -0.0009056700
   0.0008165700   -0.0011058300   -0.0018543500
   0.0022704800   -0.0002402200   -0.0005425400
  -0.0471113200    0.0085764200    0.0016603900
   0.0000774400    0.0007377100   -0.0016675100
  -0.0020354200    0.0011375400   -0.0006275700
  -0.0008132700    0.0007618700   -0.0016277000
  -0.0074048900   -0.0032967000   -0.0183277600
   0.0030411400    0.0016387400   -0.0003717300
   0.0003862300    0.0015732300   -0.0011379000
   0.0014991300    0.0012644900   -0.0011821300
  -0.0022870800    0.0026046500   -0.0097139900
   0.0017747700    0.0001516500    0.0001017300
  -0.0003488600    0.0007662400   -0.0001873100
   0.0007959700    0.0006822400   -0.0003423700
  -0.0034497900    0.0008814000    0.0031932100
   0.0006912500    0.0002442200   -0.0002614500
  -0.0011156000    0.0004647700   -0.0004242600
  -0.0001566000    0.0006211600   -0.0001700700
  -0.0550970900   -0.0207092200    0.0294359700
   0.0021770100   -0.0004109100   -0.0003824400
   0.0000489500   -0.0003683900   -0.0002716600
   0.0010973000   -0.0002020100   -0.0002171000
  -0.0607415300   -0.0075132300   -0.0310806700
   0.0014734700   -0.0008898700   -0.0004161500
  -0.0010104300   -0.0004579400   -0.0001251600
   0.0002561000   -0.0005077700   -0.0002468000
  -0.0010228100    0.0020254400    0.0006416300
  -0.0002543000    0.0007183200    0.0018900900
  -0.0013482400    0.0009018300    0.0013945000
  -0.0010569300    0.0013889700    0.0014596400
  -0.0047598000    0.0016979100    0.0033414600
  -0.0000686100   -0.0013196100    0.0011704400
  -0.0022467100   -0.0001988000    0.0002811100
  -0.0006415500   -0.0010056000    0.0018467800
   0.0009539000   -0.0034755300   -0.0040310800
   0.0029439100    0.0011968600    0.0017443400
   0.0009545800    0.0018623200    0.0014001200
   0.0013112700    0.0007556800    0.0013470900
  -0.0821440600    0.0064828000   -0.0046689000
   0.0041962200   -0.0010459700    0.0010515800
   0.0004790500   -0.0011108500    0.0015467100
   0.0018676600   -0.0009754200    0.0013254400
   0.0017529200   -0.0003721800    0.0010419600
   0.0041569600    0.0000382200    0.0003231000
   0.0021791000    0.0001317600    0.0006449900
   0.0026441900   -0.0001984400    0.0008700700
  -0.0020038600    0.0015222400    0.0003120900
   0.0016589700    0.0027388400    0.0009730400
  -0.0006756200    0.0032901500    0.0004636900
   0.0007274400    0.0021003600    0.0010005900
  -0.0020797800   -0.0011157600   -0.0002470800
   0.0010516300   -0.0028685300    0.0011124000
   0.0029060600   -0.0071226300   -0.0009248900
   0.0012018600   -0.0017560100    0.0004960300
   0.0012305500   -0.0004850200    0.0010813800
   0.0177284400    0.0000940900   -0.0049837300
  -0.0018869100   -0.0000981200    0.0007829700
  -0.0026951000    0.0001874000    0.0006962500
   0.0056411400   -0.0051030100    0.0010921800
  -0.0002176100   -0.0011494400   -0.0009422100
   0.0023537400   -0.0007128900   -0.0003741300
  -0.0000391200   -0.0011752100   -0.0007628300
  -0.0019798200    0.0026467800   -0.0000166900
  -0.0089440400   -0.0044951200   -0.0083015000
   0.0009233300    0.0007093700   -0.0006743200
   0.0011695800    0.0010582300   -0.0006168600
  -0.0017986200    0.0007942000    0.0008549300
  -0.0016707300   -0.0009694600   -0.0008002500
  -0.0007599900   -0.0012643900   -0.0007285900
  -0.0014800500   -0.0005848800   -0.0005593400
  -0.0008918100    0.0004624500   -0.0004423700
  -0.0013147800    0.0012709200   -0.0005571900
  -0.0009439000    0.0023197300    0.0004916600
  -0.0022818100    0.0000270100   -0.0012210200
   0.0015897100   -0.0011453500    0.0005638300
  -0.0026455800   -0.0013415200    0.0005617800
  -0.0007656600   -0.0014766900    0.0003362200
  -0.0017123600   -0.0015835200    0.0004530600
  -0.0010596700    0.0012524900   -0.0051284500
  -0.0014416600   -0.0021754400    0.0018156600
   0.0018840500   -0.0015825300    0.0003714400
   0.0011239400   -0.0011583100    0.0003824400
   0.0066892000    0.0033133200   -0.0023040700
  -0.0029930800    0.0012505700    0.0002817200
  -0.0001675500    0.0014747700    0.0004963000
  -0.0023134900    0.0010777300    0.0003446600
  -0.0056326000   -0.0101189100   -0.0022032800
  -0.0014006400    0.0034908000   -0.0004814800
   0.0013653500    0.0023340800    0.0000548200
   0.0010097300    0.0007873400    0.0005177800

1    
  0.0000000000000000   0.0100000000000000   0.0000000000000000
  -0.0120164000   -0.2977912600   -0.0076010300
  -0.0010172800   -0.0004132400    0.0001955300
  -0.0006687600    0.0023193400   -0.0001165300
  -0.0006955800    0.0009097600   -0.0000639100
   0.0029576800   -0.0209428500   -0.0188237400
  -0.0001490400   -0.0013428700    0.0000086800
  -0.0005912600    0.0014523300    0.0001846500
   0.0001075700   -0.0000219000    0.0000685700
  -0.0029721600    0.0074402100    0.0141307000
   0.0005892000    0.0003197200    0.0000987500
   0.0001492400    0.0030932700   -0.0000717000
  -0.0001063100    0.0011125800   -0.0000434500
   0.0027795900    0.0005570000   -0.0008810300
   0.0004888200   -0.0005012200   -0.0001697800
   0.0003690500    0.0015899000    0.0003386100
   0.0015255300    0.0000634900    0.0001312900
  -0.0047186900    0.0028668900   -0.0007541400
   0.0017372300    0.0011018000   -0.0010557600
   0.0014782600    0.0016909800    0.0000334900
   0.0003885100    0.0009745600   -0.0001069400
  -0.0156041200    0.0233545300    0.0463587700
  -0.0011554800    0.0001591300   -0.0004824000
  -0.0011992000    0.0038519800   -0.0003115800
  -0.0010325200    0.0013941800   -0.0005582400
   0.0007786900    0.0017511200    0.0004637400
   0.0010555100   -0.0006774500   -0.0005194000
   0.0008486200    0.0003858200   -0.0011232700
   0.0009857900   -0.0009397400   -0.0004965400
  -0.0000779700   -0.0001805800   -0.0020185600
  -0.0020113200   -0.0010189700    0.0000690500
  -0.0011447700   -0.0007088100   -0.0007016000
   0.0004708800   -0.0008940100   -0.0012141300
  -0.0069806500    0.0012940000    0.0051032300
  -0.0007556200   -0.0006593900   -0.0018040300
  -0.0005153800   -0.0023120900   -0.0010865900
  -0.0012655500   -0.0020054300   -0.0005046600
   0.0007521300   -0.0016726300   -0.0014202300
   0.0013692800   -0.0006686500   -0.0011524000
   0.0017097100   -0.0022906100   -0.0007288000
   0.0013409400   -0.0008344200   -0.0011667000
  -0.0189792900    0.0977584300   -0.0001206400
  -0.0012768100    0.0013311900   -0.0011438900
  -0.0011765300   -0.0010734600   -0.0016278300
  -0.0015427600    0.0001882900   -0.0011470000
   0.0049253100    0.0018550900   -0.0024366500
   0.0004774600    0.0016498200   -0.0009141200
   0.0004970800    0.0005046900   -0.0015462700
   0.0010695400    0.0009779100   -0.0014157700
   0.0004701300    0.0019060700    0.0063044900
   0.0002777600    0.0010269000   -0.0002174700
   0.0008025600   -0.0008455300   -0.0003692600
   0.0001393200    0.0002535400   -0.0001776400
  -0.0001258100    0.0002621300   -0.0056774300
  -0.0006391200    0.0009493000   -0.0002637900
  -0.0006225800   -0.0011001100   -0.0000921100
  -0.0007579500   -0.0000646100   -0.0002501100
   0.0281523400    0.0761093200   -0.0348002200
   0.0006978000    0.0001654300   -0.0002604900
   0.0004452700   -0.0020048900   -0.0003002300
   0.0003681000   -0.0010315600   -0.0003490600
   0.0018711600    0.0507592000    0.0242049700
  -0.0004347300   -0.0001171600   -0.0002975900
  -0.0002540900   -0.0020752500   -0.0003084600
  -0.0003567600   -0.0011035200   -0.0002144300
  -0.0021559000    0.0013091100    0.0024556500
  -0.0004982600    0.0013309200    0.0014204300
  -0.0005534600    0.0004317100    0.0013346100
  -0.0022037300    0.0007069800    0.0016921300
  -0.0009625100   -0.0026891300   -0.0002466300
  -0.0012634400   -0.0009737600    0.0013903600
  -0.0007453300   -0.0028059200    0.0019076000
  -0.0011298800   -0.0012045700    0.0014725500
   0.0053273400    0.0163131100   -0.0116063700
   0.0012187200    0.0018232600    0.0014365000
   0.0011723700   -0.0013011500    0.0018922300
   0.0011514500    0.0003174200    0.0014949400
  -0.0030262500    0.0422636100    0.0035260700
   0.0011874700   -0.0005100900    0.0021360100
   0.0010149000   -0.0022455900    0.0015523500
   0.0011744800   -0.0014958700    0.0011333600
   0.0032723900    0.0014987300    0.0012653900
   0.0009145200    0.0002327900    0.0009860500
   0.0017735800   -0.0016460300    0.0010653000
   0.0027104900   -0.0005738900    0.0008492600
   0.0008621300    0.0024024200    0.0028729100
   0.0000407800    0.0025086600    0.0008245300
   0.0000726500    0.0004983700    0.0003850100
  -0.0002451200    0.0021142000    0.0005100000
  -0.0002315600   -0.0048955100    0.0013495700
  -0.0000514400   -0.0028269600    0.0006915700
   0.0049247200   -0.0186073400   -0.0118866600
  -0.0001056500   -0.0018745800    0.0008053200
  -0.0034624400    0.0023646200    0.0007253300
   0.0005689600   -0.0018004800    0.0010465600
  -0.0016901200   -0.0014797400    0.0006798300
  -0.0027621900   -0.0008123700    0.0003795100
   0.0106430400    0.0088276500   -0.0097177600
   0.0008721800   -0.0013462000   -0.0006421600
   0.0005687400    0.0003916300   -0.0007695700
   0.0014423600   -0.0007002000   -0.0006246900
  -0.0001127900   -0.0019613000   -0.0007714300
   0.0008733900   -0.0013264200   -0.0016084400
   0.0009627400    0.0020617600   -0.0003870300
   0.0009915800    0.0020422500   -0.0005235600
  -0.0018833500   -0.0007176200   -0.0002704200
  -0.0006337400   -0.0015940200   -0.0004685800
  -0.0008106600    0.0000078500   -0.0014316600
  -0.0014991000   -0.0003632300   -0.0005805600
  -0.0002597800    0.0019215800   -0.0010419000
  -0.0011829100    0.0012279300   -0.0005457000
  -0.0035656900    0.0014495300    0.0027022300
  -0.0008002100    0.0007780100   -0.0009135400
  -0.0011491800   -0.0047577700    0.0008482900
  -0.0010940000   -0.0022338500    0.0003645500
  -0.0013792200    0.0000572600    0.0005475100
  -0.0012625600   -0.0008426300    0.0004267700
   0.0022011300   -0.0075460100   -0.0013876600
   0.0016466400   -0.0019874700    0.0006300100
   0.0013502900    0.0000743100    0.0001952100
   0.0015350100   -0.0006902300    0.0003196400
  -0.0066540500    0.0053045200   -0.0044780800
  -0.0009922900    0.0010581600    0.0004620800
  -0.0000677200    0.0038106000    0.0013773900
  -0.0016674400    0.0013994500    0.0003897600
   0.0117304100    0.0110638000    0.0033272500
   0.0008635400    0.0013004400    0.0002810000
   0.0000456400    0.0048995700   -0.0006781700
   0.0017567400    0.0019300700    0.0006410000

1    
  0.0000000000000000  -0.0100000000000000   0.0000000000000000
   0.0153792800    0.2885115800    0.0039051800
  -0.0005895500    0.0006352100   -0.0001560900
  -0.0009305100   -0.0020989900    0.0001558600
  -0.0009060600   -0.0006885300    0.0001028400
  -0.0031858700    0.0191242100    0.0189393100
  -0.0000739500   -0.0002534700    0.0000295400
   0.0003684000   -0.0030539600   -0.0001447900
  -0.0003259400   -0.0015767500   -0.0000294600
   0.0031714500   -0.0057238200   -0.0142016200
  -0.0003706400    0.0012837700   -0.0000587800
   0.0000741900   -0.0014864100    0.0001099700
   0.0003271700    0.0004857300    0.0000828100
  -0.0011687600   -0.0007616000    0.0009495900
   0.0011107500    0.0002823100    0.0002086700
   0.0012286900   -0.0018079900   -0.0002993900
   0.0000783700   -0.0002886800   -0.0000910000
   0.0063158000   -0.0008243800   -0.0001992800
  -0.0001553900    0.0008792700    0.0000716700
   0.0001179800    0.0002929200   -0.0010146600
   0.0011918100    0.0010066400   -0.0008773100
   0.0134630700   -0.0211670400   -0.0471679300
  -0.0008323400    0.0014285900   -0.0004990500
  -0.0007826500   -0.0022618000   -0.0006712900
  -0.0009501300    0.0002004100   -0.0004226700
   0.0012005800   -0.0033366300   -0.0014532000
   0.0009263600   -0.0009145400   -0.0004624400
   0.0011321000   -0.0019798400    0.0001392100
   0.0009967300   -0.0006486700   -0.0004875700
  -0.0015143600   -0.0017981100    0.0010481500
   0.0004163900   -0.0009624400   -0.0010539100
  -0.0004423700   -0.0012726800   -0.0002809900
  -0.0020608400   -0.0010892300    0.0002314100
   0.0052959100   -0.0040090700   -0.0074538700
  -0.0009202200   -0.0020947500   -0.0005525700
  -0.0011541400   -0.0004402400   -0.0012699100
  -0.0004121300   -0.0007476400   -0.0018488700
   0.0020025000   -0.0000026600   -0.0009335100
   0.0013839300   -0.0010071800   -0.0012046500
   0.0010454700    0.0006110100   -0.0016241100
   0.0014142900   -0.0008343700   -0.0011882100
   0.0137017100   -0.0862788300   -0.0007070000
  -0.0014729200    0.0003422500   -0.0012123800
  -0.0015781800    0.0027487400   -0.0007273900
  -0.0012102800    0.0014845500   -0.0012095600
  -0.0032111300    0.0008613600    0.0000199900
   0.0011962500    0.0011024800   -0.0014426100
   0.0011751400    0.0022476900   -0.0008139200
   0.0006049100    0.0017767800   -0.0009401800
   0.0002258400   -0.0006567800   -0.0068047300
   0.0004174300    0.0001912100   -0.0002780500
  -0.0001071900    0.0020658100   -0.0001267100
   0.0005526300    0.0009676800   -0.0003181200
  -0.0010699500    0.0004269800    0.0050861900
  -0.0005802300   -0.0002565300   -0.0002326700
  -0.0005977500    0.0017897500   -0.0004025300
  -0.0004624000    0.0007577000   -0.0002461300
  -0.0284918600   -0.0778707700    0.0367473700
   0.0005256900   -0.0008581300   -0.0002346300
   0.0007749100    0.0013129600   -0.0001955200
   0.0008517400    0.0003407800   -0.0001462200
  -0.0027368800   -0.0518827200   -0.0248944600
  -0.0002521900   -0.0011044200   -0.0001980800
  -0.0004405000    0.0008531400   -0.0001868600
  -0.0003353600   -0.0001162400   -0.0002808900
  -0.0001107000    0.0009144500    0.0003912300
  -0.0017667300    0.0008933200    0.0014330800
  -0.0017037500    0.0017915400    0.0015165100
  -0.0000662200    0.0015182900    0.0011631300
  -0.0012634500    0.0004285000    0.0031237000
  -0.0009600500   -0.0012926200    0.0014617600
  -0.0014754100    0.0005361100    0.0009494600
  -0.0010953700   -0.0010544300    0.0013806200
  -0.0030599600   -0.0140867500    0.0142440100
   0.0010111700    0.0004391000    0.0014200400
   0.0010537500    0.0035683500    0.0009595800
   0.0010736800    0.0019425900    0.0013572300
   0.0046243700   -0.0443523300   -0.0005755900
   0.0010771300   -0.0017134900    0.0007144700
   0.0012455500    0.0000199000    0.0013011500
   0.0010892900   -0.0007290300    0.0017157800
   0.0014621100   -0.0015638900    0.0001617500
   0.0037945600   -0.0003014600    0.0004481900
   0.0029513100    0.0015801000    0.0003691400
   0.0019884300    0.0005089800    0.0005869700
  -0.0007934100    0.0023397500   -0.0014359500
   0.0000269800    0.0022020100    0.0006120300
  -0.0000073000    0.0042054300    0.0010524500
   0.0003081000    0.0026135900    0.0009242500
   0.0001720900    0.0001640200    0.0000804100
  -0.0000102900   -0.0018987200    0.0007426400
  -0.0049850700    0.0138772900    0.0134126300
   0.0000446400   -0.0028434600    0.0006296800
  -0.0012431400   -0.0023065500    0.0007130700
  -0.0052295300    0.0018638000    0.0003333700
  -0.0030044900    0.0015425900    0.0007581700
  -0.0019609500    0.0008761200    0.0010545000
  -0.0086135000   -0.0108496300    0.0083650700
   0.0010808300   -0.0007709800   -0.0006479100
   0.0013899400   -0.0025108500   -0.0005216700
   0.0005112700   -0.0014149500   -0.0006645500
   0.0022280600    0.0039130000   -0.0005256200
   0.0012106900    0.0032502900    0.0002968100
   0.0011520900   -0.0001066500   -0.0009012600
   0.0011253600   -0.0000864200   -0.0007647700
  -0.0002389700   -0.0012271400   -0.0010094100
  -0.0014816900   -0.0003577900   -0.0008191100
  -0.0013047100   -0.0019646200    0.0001442900
  -0.0006182200   -0.0015936000   -0.0007067000
  -0.0016972700    0.0001950800   -0.0002425700
  -0.0007715400    0.0008894600   -0.0007423000
   0.0015962800    0.0006842300   -0.0039723700
  -0.0011573500    0.0013335200   -0.0003779300
  -0.0013556200    0.0017983300   -0.0000417200
  -0.0014158000   -0.0007094900    0.0004327100
  -0.0011298700   -0.0029988900    0.0002498100
  -0.0012463500   -0.0021029500    0.0003695300
   0.0007501900    0.0049941900    0.0021931400
   0.0012903800   -0.0005248300    0.0001711700
   0.0015920900   -0.0025827800    0.0006020900
   0.0014098300   -0.0018178800    0.0004770400
   0.0037540500   -0.0027978000    0.0053138200
  -0.0019540100    0.0014523300    0.0003354700
  -0.0028728500   -0.0012957700   -0.0005771000
  -0.0012773000    0.0011087400    0.0004076200
  -0.0093406800   -0.0081561900   -0.0025658800
   0.0016403800    0.0016501400    0.0005132700
   0.0024591000   -0.0019502600    0.0014705200
   0.0007530400    0.0010113800    0.0001571000

1    
  0.0000000000000000   0.0000000000000000   0.0100000000000000
   0.0134730900   -0.0017775400   -0.3400882800
  -0.0008651800    0.0002869300    0.0000759000
  -0.0007036600   -0.0000293100   -0.0001070300
  -0.0008156000    0.0000260000   -0.0000323200
  -0.0144697900   -0.0004477600    0.0373987700
  -0.0000199800   -0.0006163100   -0.0000249500
  -0.0001888400   -0.0011099200    0.0000882000
  -0.0000472600   -0.0008271100    0.0000193800
  -0.0188095800    0.0209189500    0.0368851400
   0.0002727900    0.0009977300    0.0000888600
   0.0001007300    0.0004003800   -0.0000246500
   0.0001595700    0.0007062300    0.0000196100
   0.0024855400    0.0008001400    0.0092618900
   0.0006301700    0.0000795600   -0.0000217600
   0.0008263900   -0.0004286800    0.0001624900
   0.0008743300   -0.0002227800    0.0000730700
  -0.0130280000    0.0000762100   -0.0092935500
   0.0019045000    0.0011610600   -0.0002652800
   0.0007049800    0.0010902200   -0.0006133800
   0.0006484000    0.0008991100   -0.0006398100
  -0.0059800400    0.0238617200    0.0042388900
  -0.0011481900    0.0007311900   -0.0005371900
  -0.0006430700   -0.0004278900   -0.0009266000
  -0.0009811500    0.0008623000   -0.0004338900
   0.0029168900    0.0029492900    0.0043092900
   0.0008591500   -0.0007389600   -0.0004621400
   0.0012126500   -0.0026344200   -0.0003461000
   0.0010392800   -0.0007837900   -0.0005004000
  -0.0016753100   -0.0027008000    0.0048380200
  -0.0001185200   -0.0010205600   -0.0004145300
  -0.0010509100   -0.0009588200   -0.0003322800
  -0.0006819300   -0.0010197900   -0.0004468500
   0.0073047500   -0.0012865900   -0.0088777500
  -0.0009991100   -0.0014468600   -0.0012116200
  -0.0006663900   -0.0012898200   -0.0013190300
  -0.0009001800   -0.0013359500   -0.0011970100
   0.0005141400   -0.0010593100   -0.0047051800
   0.0014354500   -0.0009548700   -0.0011862900
   0.0010574800   -0.0002323300   -0.0018002100
   0.0013967000   -0.0007468000   -0.0011693600
  -0.0016516600   -0.0053923600    0.0464825500
  -0.0013970200    0.0007417600   -0.0011302500
  -0.0017585400    0.0012089000   -0.0007003300
  -0.0013184600    0.0008895200   -0.0012376800
   0.0135320300   -0.0002160700   -0.0002276100
   0.0005713600    0.0010339900   -0.0013282700
   0.0009412700    0.0014316800   -0.0011097800
   0.0008248200    0.0015263800   -0.0010336300
  -0.0010217400    0.0025670500   -0.0117444700
   0.0003678600    0.0004450500   -0.0002886300
   0.0003144300    0.0007463900   -0.0004565000
   0.0003255300    0.0006671900   -0.0002784500
  -0.0002363800   -0.0008476500   -0.0142136200
  -0.0005895600    0.0002539400   -0.0002682500
  -0.0005929700    0.0005189500   -0.0003226500
  -0.0006000900    0.0004102000   -0.0002940100
  -0.0280060800   -0.0255508800    0.0926657200
   0.0006420900   -0.0004377200   -0.0001922400
   0.0006360800   -0.0002709000   -0.0001664300
   0.0006088700   -0.0003035300   -0.0002358200
   0.0154729900    0.0236600000    0.1080902900
  -0.0003632700   -0.0007138400   -0.0002317400
  -0.0004787000   -0.0004836400   -0.0001022900
  -0.0003505600   -0.0005755200   -0.0001817800
  -0.0022639200    0.0008296500   -0.0023107000
  -0.0012307800    0.0013235100    0.0010951900
  -0.0011103900    0.0011480100    0.0013185200
  -0.0012465300    0.0011360300    0.0013947700
   0.0020898800   -0.0140542300   -0.0051891100
  -0.0010638200   -0.0012906700    0.0014013700
  -0.0011948800   -0.0002450800    0.0016599100
  -0.0011725300   -0.0010547500    0.0014243100
   0.0032725700   -0.0077883300   -0.0031240800
   0.0011536900    0.0010418200    0.0014473000
   0.0010739700    0.0018384300    0.0012405400
   0.0011094600    0.0011186800    0.0014006500
   0.0156428600   -0.0011582100    0.0515224500
   0.0006963300   -0.0008508100    0.0019111000
   0.0010702600   -0.0012117600    0.0015565500
   0.0011747700   -0.0010506200    0.0014764600
   0.0016328800   -0.0006493400   -0.0004395500
   0.0038004000    0.0002443400   -0.0006076200
   0.0023116300   -0.0001387300    0.0007302000
   0.0024675200    0.0001601700    0.0004531900
   0.0016858900    0.0045841400    0.0005880000
   0.0001130100    0.0023572700    0.0007487200
  -0.0003611500   -0.0008808600    0.0001189900
   0.0001666500    0.0023610400    0.0007681900
   0.0013197200   -0.0005312700    0.0011959900
   0.0001258500   -0.0023616500    0.0006080500
  -0.0000463000   -0.0057998600    0.0006352900
   0.0000369100   -0.0022779200    0.0007460800
  -0.0039223000   -0.0007414400    0.0020612400
  -0.0035516500    0.0011932400    0.0027564600
  -0.0022353500   -0.0000364500    0.0007925000
  -0.0023199000    0.0000833100    0.0008756700
   0.0006547800   -0.0035888600   -0.0032125300
   0.0012008500   -0.0010938700   -0.0008041400
   0.0003426800    0.0003643300   -0.0021833400
   0.0007705800   -0.0011443100   -0.0005997400
  -0.0013612500    0.0018170600   -0.0022421200
   0.0013813600    0.0006467400   -0.0008690800
   0.0009792900    0.0009062800   -0.0006222200
   0.0010316100    0.0008626200   -0.0008129700
  -0.0026867400   -0.0000228300    0.0011957600