120  
17   

1    
  0.0100000000000000   0.0000000000000000   0.0000000000000000
  -0.0550575100    0.0004360200   -0.0079849400
   0.0014259700   -0.0001661400   -0.0084238600
   0.0014262800    0.0004095200   -0.0078867400
  -0.0002181000    0.0001154400   -0.0081553300
   0.0001460300    0.0000988900   -0.0081916500
   0.0001500000    0.0001364300   -0.0081205300
  -0.0002298100    0.0001195700   -0.0081576900
   0.0001433100    0.0001767100   -0.0081189400
   0.0001448000    0.0000630400   -0.0081924900
  -0.0000831900    0.0001206000   -0.0081605000
   0.0001506400    0.0000684800   -0.0081529100
   0.0001544500    0.0001694200   -0.0081632100
  -0.0024344300   -0.0000951500   -0.0081603300
   0.0006414000   -0.0011079500   -0.0076299400
   0.0006391300    0.0008543900   -0.0086697300
  -0.0033951800   -0.0001754700   -0.0081269200
   0.0007253000    0.0008914900   -0.0087956100
   0.0007268500   -0.0011241100   -0.0075176700
  -0.0002299900   -0.0001224100   -0.0081526900
   0.0001082700   -0.0002445500   -0.0081142200
   0.0001103000    0.0000031800   -0.0081972900
  -0.0002730200   -0.0001172700   -0.0081611300
   0.0001158100   -0.0000349400   -0.0081507200
   0.0001188300   -0.0002025400   -0.0081617700
   0.0081370400   -0.0070512400   -0.0138556200
   0.0042542400   -0.0000045300   -0.0063688700
   0.0080333000    0.0069250500    0.0009954700
  -0.0006271300    0.0003363000   -0.0064571700
   0.0011996200   -0.0000010100   -0.0063672100
  -0.0006098400   -0.0003364300   -0.0062738400
  -0.0006973400   -0.0000231800   -0.0061167100
   0.0012992300   -0.0000004200   -0.0063669600
  -0.0006816900    0.0000216900   -0.0066159000
  -0.0005606900    0.0000798100   -0.0063252100
   0.0013846600    0.0000008100   -0.0063674200
  -0.0005294200   -0.0000823300   -0.0064140700
   0.0009697000    0.0001797600   -0.0081077000
   0.0010091400   -0.0012601400   -0.0094581100
   0.0009978700    0.0014763800   -0.0068783000
  -0.0007286400    0.0001228200   -0.0081514100
   0.0004194400    0.0005584000   -0.0083736400
   0.0004179400   -0.0003138400   -0.0079374200
  -0.0007280800    0.0001211100   -0.0081520500
   0.0004194800   -0.0000593900   -0.0077737500
   0.0004175100    0.0002976900   -0.0085306800
   0.0009708200    0.0000532600   -0.0082294800
   0.0010031000    0.0016096300   -0.0066362000
   0.0010031700   -0.0013558400   -0.0096625000
  -0.0026795600   -0.0001267100   -0.0081358100
   0.0006704600    0.0003126600   -0.0089852900
   0.0006667900   -0.0005421100   -0.0073376500
  -0.0002547700   -0.0001180700   -0.0081532500
   0.0001164700   -0.0000375000   -0.0082976200
   0.0001191000   -0.0002039900   -0.0080130200
  -0.0026792200   -0.0000987600   -0.0081993000
   0.0006681800   -0.0008086400   -0.0071067900
   0.0006687200    0.0005661100   -0.0091966700
  -0.0002540000   -0.0001268200   -0.0081522800
   0.0001151000   -0.0000793700   -0.0080971800
   0.0001196400   -0.0001621300   -0.0082107200
  -0.0003593500   -0.0001687000   -0.0066069400
   0.0011365000   -0.0000015400   -0.0063703600
  -0.0003354700    0.0001696800   -0.0061285600
  -0.0005606600    0.0000303100   -0.0067939200
   0.0010495500    0.0000002800   -0.0063678300
  -0.0005478100   -0.0000296400   -0.0059448500
  -0.0006260500   -0.0003464700   -0.0063847200
   0.0012116200   -0.0000009200   -0.0063659300
  -0.0006095800    0.0003405500   -0.0063467900
   0.0105534500    0.0084698700    0.0016628200
   0.0047784400    0.0000011700   -0.0063664800
   0.0105141700   -0.0083577500   -0.0142931800
   0.0002020300   -0.0000023900    0.0007122200
  -0.0003407900   -0.0000003600    0.0003595400
   0.0001942800    0.0000033900    0.0000061300
   0.0000978900   -0.0000418100    0.0003987900
  -0.0001852100   -0.0000002700    0.0003577500
   0.0000939300    0.0000403800    0.0003181000
   0.0024544900   -0.0004246900    0.0009649600
  -0.0005819400    0.0000002000    0.0003563200
   0.0023384300    0.0003256600   -0.0001651600
   0.0001896600   -0.0004903100    0.0003548100
  -0.0003481100   -0.0000007700    0.0003572000
   0.0001797200    0.0004929100    0.0003590200
   0.0002079300    0.0003736000    0.0003505000
  -0.0003278900    0.0000017200    0.0003570300
   0.0002001600   -0.0003701200    0.0003661600
   0.0009397500   -0.0002208700    0.0008846900
  -0.0006264600   -0.0000015500    0.0003577100
   0.0008678000    0.0002684700   -0.0002294000
   0.0001015000    0.0000517000    0.0002982400
  -0.0001954000    0.0000002000    0.0003574500
   0.0000974300   -0.0000497300    0.0004154000
   0.0001749900   -0.0000108900   -0.0001361400
  -0.0002967100   -0.0000002900    0.0003570800
   0.0001676900    0.0000080000    0.0008526300
   0.0142760200    0.0000881800    0.0224365100
  -0.0080054200    0.0013464400    0.0237672700
  -0.0079503000   -0.0013279300    0.0208915600
   0.0016489800    0.0000128400    0.0223000400
  -0.0007884200   -0.0010428800    0.0227818500
  -0.0008001200    0.0010320400    0.0218602300
   0.0017699500   -0.0000185100    0.0223292500
  -0.0008308500    0.0005048400    0.0211584900
  -0.0008404300   -0.0005053200    0.0234735500
   0.0010703500    0.0000279100    0.0223462500
  -0.0006473200   -0.0009716900    0.0213686700
  -0.0006698200    0.0009657600    0.0232664200
   0.0011673200   -0.0000111400    0.0223050200
  -0.0006147500    0.0008108200    0.0231134600
  -0.0006330800   -0.0007917600    0.0215420200
   0.0015342800   -0.0000007500    0.0223238900
  -0.0007577700   -0.0004669900    0.0230541100
  -0.0007657700    0.0004548200    0.0216010100
   0.0017139700    0.0000026100    0.0223250600
  -0.0008447500    0.0009740700    0.0217965300
  -0.0008526300   -0.0009566300    0.0228367200
   0.0210798600   -0.0003179800    0.0220392700
  -0.0100708500   -0.0006194500    0.0220921000
  -0.0100548800    0.0006099800    0.0225435500

1    
  0.0000000000000000   0.0100000000000000   0.0000000000000000
   0.0000000000   -0.1587861100   -0.1046661200
   0.0002843200   -0.0055998200   -0.0129977500
  -0.0002843200   -0.0055998200   -0.0129977500
   0.0000000000    0.0086999100   -0.0055211700
   0.0000194600    0.0017487700   -0.0075809500
  -0.0000194600    0.0017487700   -0.0075809500
   0.0000000000   -0.0007915600   -0.0064259000
  -0.0000568700   -0.0002418000   -0.0076980700
   0.0000568700   -0.0002418000   -0.0076980700
   0.0000000000    0.0060727500   -0.0025794000
   0.0000517000    0.0018044500   -0.0066357300
  -0.0000517000    0.0018044500   -0.0066357300
   0.0000000000    0.0264629100   -0.0166091400
  -0.0009795200    0.0014270600   -0.0097106700
   0.0009795200    0.0014270600   -0.0097106700
   0.0000000000    0.0340189600   -0.0202123300
   0.0010039400    0.0013886000   -0.0098500100
  -0.0010039400    0.0013886000   -0.0098500100
   0.0000000000   -0.0002445200   -0.0062087200
  -0.0001236000   -0.0002784500   -0.0074561800
   0.0001236000   -0.0002784500   -0.0074561800
   0.0000000000   -0.0029185600   -0.0048748100
   0.0000842000   -0.0011131000   -0.0070112100
  -0.0000842000   -0.0011131000   -0.0070112100
  -0.0198226100    0.0042133100   -0.0002535800
   0.0000000000   -0.0005165300   -0.0075189800
   0.0198226100    0.0042133100   -0.0002535800
   0.0020207600    0.0015537700   -0.0074975900
   0.0000000000    0.0005832300   -0.0066531400
  -0.0020207600    0.0015537700   -0.0074975900
  -0.0000024200   -0.0005137000   -0.0061289200
   0.0000000000   -0.0003090600   -0.0060945800
   0.0000024200   -0.0005137000   -0.0061289200
   0.0025814200    0.0008274700   -0.0053004000
   0.0000000000    0.0003785600   -0.0057660800
  -0.0025814200    0.0008274700   -0.0053004000
   0.0000000000    0.0222623200    0.0087812200
  -0.0014755800    0.0020206000   -0.0062908700
   0.0014755800    0.0020206000   -0.0062908700
   0.0000000000   -0.0016112900   -0.0117306900
   0.0001767000   -0.0003195500   -0.0088265600
  -0.0001767000   -0.0003195500   -0.0088265600
   0.0000000000   -0.0015652000   -0.0109403900
  -0.0004369300   -0.0003091100   -0.0090513100
   0.0004369300   -0.0003091100   -0.0090513100
   0.0000000000    0.0224446600    0.0164491200
   0.0013636400    0.0020152700   -0.0061817100
  -0.0013636400    0.0020152700   -0.0061817100
   0.0000000000   -0.0103174900    0.0030885200
  -0.0006853000   -0.0026024500   -0.0066481300
   0.0006853000   -0.0026024500   -0.0066481300
   0.0000000000    0.0055568100   -0.0110637800
   0.0000424400    0.0014842300   -0.0090762300
  -0.0000424400    0.0014842300   -0.0090762300
   0.0000000000   -0.0103643800   -0.0025260200
   0.0004243500   -0.0026082000   -0.0063936900
  -0.0004243500   -0.0026082000   -0.0063936900
   0.0000000000    0.0055487700   -0.0118913700
   0.0000832600    0.0014867700   -0.0091995600
  -0.0000832600    0.0014867700   -0.0091995600
  -0.0012357500    0.0012279200   -0.0054428600
   0.0000000000    0.0007015800   -0.0059977100
   0.0012357500    0.0012279200   -0.0054428600
  -0.0006184300   -0.0010662300   -0.0059060500
   0.0000000000   -0.0005434000   -0.0061056500
   0.0006184300   -0.0010662300   -0.0059060500
  -0.0021389100    0.0013485900   -0.0072772400
   0.0000000000    0.0004098300   -0.0067890100
   0.0021389100    0.0013485900   -0.0072772400
   0.0256938500    0.0007313200   -0.0009675200
   0.0000000000   -0.0006075200   -0.0059033300
  -0.0256938500    0.0007313200   -0.0009675200
   0.0007713300    0.0002396600   -0.0010319500
   0.0000000000    0.0001208200   -0.0001104800
  -0.0007713300    0.0002396600   -0.0010319500
  -0.0001093100   -0.0001787700    0.0003735900
   0.0000000000   -0.0000815700    0.0003643600
   0.0001093100   -0.0001787700    0.0003735900
   0.0007604700    0.0022724400    0.0018614700
   0.0000000000    0.0005684400    0.0005733600
  -0.0007604700    0.0022724400    0.0018614700
  -0.0013164200   -0.0021045400    0.0002407600
   0.0000000000   -0.0005594400    0.0004296100
   0.0013164200   -0.0021045400    0.0002407600
   0.0008100100   -0.0016232800    0.0003678900
   0.0000000000   -0.0005365200    0.0004149300
  -0.0008100100   -0.0016232800    0.0003678900
   0.0005809300    0.0037811600    0.0016272100
   0.0000000000    0.0004765900    0.0009660000
  -0.0005809300    0.0037811600    0.0016272100
   0.0000046400   -0.0004376800    0.0003040000
   0.0000000000   -0.0001867200    0.0002908700
  -0.0000046400   -0.0004376800    0.0003040000
  -0.0004149700    0.0006693800   -0.0010023700
   0.0000000000    0.0002082700   -0.0000717800
   0.0004149700    0.0006693800   -0.0010023700
   0.0000000000   -0.0138578300    0.0017108200
   0.0118229900    0.0029746100    0.0238291700
  -0.0118229900    0.0029746100    0.0238291700
   0.0000000000   -0.0160476300    0.0352396700
  -0.0015570600   -0.0025980700    0.0241324300
   0.0015570600   -0.0025980700    0.0241324300
   0.0000000000    0.0055788400    0.0195526500
   0.0003896100    0.0023033400    0.0213187600
  -0.0003896100    0.0023033400    0.0213187600
   0.0000000000   -0.0119621800    0.0116003900
  -0.0018476800   -0.0026127400    0.0201308400
   0.0018476800   -0.0026127400    0.0201308400
   0.0000000000   -0.0109746600    0.0140839200
   0.0010588500   -0.0029731000    0.0203299300
  -0.0010588500   -0.0029731000    0.0203299300
   0.0000000000    0.0095435900    0.0167280900
   0.0003301500    0.0025224000    0.0208206100
  -0.0003301500    0.0025224000    0.0208206100
   0.0000000000   -0.0169091200    0.0330593300
   0.0016602300   -0.0030757800    0.0239409100
  -0.0016602300   -0.0030757800    0.0239409100
   0.0000000000    0.0876748700    0.0781633400
  -0.0134861300    0.0034050700    0.0245217300
   0.0134861300    0.0034050700    0.0245217300

1    
  0.0000000000000000  -0.0100000000000000   0.0000000000000000
   0.0000000000    0.1556169100    0.0847420000
  -0.0002911800    0.0058605200   -0.0032946300
   0.0002911800    0.0058605200   -0.0032946300
   0.0000000000   -0.0084726600   -0.0108037300
  -0.0000179900   -0.0015147400   -0.0087307600
   0.0000179900   -0.0015147400   -0.0087307600
   0.0000000000    0.0010140800   -0.0099311600
   0.0000570000    0.0004776600   -0.0086196300
  -0.0000570000    0.0004776600   -0.0086196300
   0.0000000000   -0.0058383200   -0.0137366200
  -0.0000501100   -0.0015700700   -0.0096851200
   0.0000501100   -0.0015700700   -0.0096851200
   0.0000000000   -0.0270697000    0.0003767600
   0.0009818900   -0.0016659500   -0.0065905000
  -0.0009818900   -0.0016659500   -0.0065905000
   0.0000000000   -0.0338290500    0.0037952300
  -0.0010104500   -0.0016444900   -0.0064486600
   0.0010104500   -0.0016444900   -0.0064486600
   0.0000000000    0.0000303200   -0.0101427000
   0.0001241700    0.0000499100   -0.0088670900
  -0.0001241700    0.0000499100   -0.0088670900
   0.0000000000    0.0026732800   -0.0114427000
  -0.0000838900    0.0008715900   -0.0093002100
   0.0000838900    0.0008715900   -0.0093002100
   0.0200183700   -0.0042009700   -0.0125141500
   0.0000000000    0.0005175700   -0.0052104500
  -0.0200183700   -0.0042009700   -0.0125141500
  -0.0019980100   -0.0015636000   -0.0052366400
   0.0000000000   -0.0005900000   -0.0060777200
   0.0019980100   -0.0015636000   -0.0052366400
  -0.0000177300    0.0005187700   -0.0066167200
   0.0000000000    0.0003110900   -0.0066435300
   0.0000177300    0.0005187700   -0.0066167200
  -0.0025624300   -0.0008302400   -0.0074372800
   0.0000000000   -0.0003806900   -0.0069715900
   0.0025624300   -0.0008302400   -0.0074372800
   0.0000000000   -0.0222408400   -0.0252255800
   0.0014873700   -0.0017904900   -0.0100326000
  -0.0014873700   -0.0017904900   -0.0100326000
   0.0000000000    0.0018180200   -0.0046119600
  -0.0001800800    0.0005499000   -0.0074811700
   0.0001800800    0.0005499000   -0.0074811700
   0.0000000000    0.0018655400   -0.0053342000
   0.0004349500    0.0005603300   -0.0072526700
  -0.0004349500    0.0005603300   -0.0072526700
   0.0000000000   -0.0220620400   -0.0326478600
  -0.0013720200   -0.0017977300   -0.0101528800
   0.0013720200   -0.0017977300   -0.0101528800
   0.0000000000    0.0102230700   -0.0194516900
   0.0006872700    0.0023822100   -0.0096687900
  -0.0006872700    0.0023822100   -0.0096687900
   0.0000000000   -0.0057992600   -0.0052584200
  -0.0000397100   -0.0017327900   -0.0072285900
   0.0000397100   -0.0017327900   -0.0072285900
   0.0000000000    0.0101760900   -0.0140152200
  -0.0004308600    0.0023774000   -0.0099279400
   0.0004308600    0.0023774000   -0.0099279400
   0.0000000000   -0.0058073700   -0.0044041800
  -0.0000823900   -0.0017292500   -0.0071077600
   0.0000823900   -0.0017292500   -0.0071077600
   0.0012523600   -0.0012308200   -0.0073007400
   0.0000000000   -0.0007026500   -0.0067406500
  -0.0012523600   -0.0012308200   -0.0073007400
   0.0006266300    0.0010673500   -0.0068251600
   0.0000000000    0.0005430900   -0.0066287200
  -0.0006266300    0.0010673500   -0.0068251600
   0.0021677200   -0.0013443500   -0.0054472700
   0.0000000000   -0.0004087700   -0.0059411800
  -0.0021677200   -0.0013443500   -0.0054472700
  -0.0256899600   -0.0008403800   -0.0118203700
   0.0000000000    0.0006039700   -0.0068358400
   0.0256899600   -0.0008403800   -0.0118203700
  -0.0007765100   -0.0002433400    0.0017554400
   0.0000000000   -0.0001223800    0.0008288200
   0.0007765100   -0.0002433400    0.0017554400
   0.0001069900    0.0001813600    0.0003418100
   0.0000000000    0.0000829100    0.0003505000
  -0.0001069900    0.0001813600    0.0003418100
  -0.0006557700   -0.0023613500   -0.0010971500
   0.0000000000   -0.0005731400    0.0001396700
   0.0006557700   -0.0023613500   -0.0010971500
   0.0013077300    0.0021131500    0.0004715600
   0.0000000000    0.0005635300    0.0002851600
  -0.0013077300    0.0021131500    0.0004715600
  -0.0008200100    0.0016290900    0.0003467600
   0.0000000000    0.0005392400    0.0002988100
   0.0008200100    0.0016290900    0.0003467600
  -0.0005047700   -0.0037384700   -0.0009838600
   0.0000000000   -0.0004780300   -0.0002562200
   0.0005047700   -0.0037384700   -0.0009838600
  -0.0000054800    0.0004343200    0.0004121500
   0.0000000000    0.0001858700    0.0004252800
   0.0000054800    0.0004343200    0.0004121500
   0.0004171500   -0.0006633800    0.0017261000
   0.0000000000   -0.0002077000    0.0007898200
  -0.0004171500   -0.0006633800    0.0017261000
   0.0000000000    0.0133649700    0.0422312400
  -0.0118806000   -0.0029980000    0.0207985200
   0.0118806000   -0.0029980000    0.0207985200
   0.0000000000    0.0160360300    0.0095059300
   0.0015454200    0.0026242800    0.0204995400
  -0.0015454200    0.0026242800    0.0204995400
   0.0000000000   -0.0057166900    0.0251989600
  -0.0003740500   -0.0023216600    0.0233400000
   0.0003740500   -0.0023216600    0.0233400000
   0.0000000000    0.0119869300    0.0330329000
   0.0018362800    0.0026363800    0.0245265000
  -0.0018362800    0.0026363800    0.0245265000
   0.0000000000    0.0110154700    0.0306283800
  -0.0010725000    0.0029842100    0.0243270200
   0.0010725000    0.0029842100    0.0243270200
   0.0000000000   -0.0095582900    0.0279742600
  -0.0003310900   -0.0025288000    0.0238267500
   0.0003310900   -0.0025288000    0.0238267500
   0.0000000000    0.0169708600    0.0114890000
  -0.0016780000    0.0030731500    0.0206913100
   0.0016780000    0.0030731500    0.0206913100
   0.0000000000   -0.0836491500   -0.0288089700
   0.0135648400   -0.0033967800    0.0201189600
  -0.0135648400   -0.0033967800    0.0201189600

1    
  0.0000000000000000   0.0000000000000000   0.0100000000000000
   0.0000000000   -0.0959390500   -0.1495770200
   0.0002655400   -0.0047177200   -0.0136064000
  -0.0002655400   -0.0047177200   -0.0136064000
   0.0000000000    0.0027483400   -0.0084722300
   0.0000350500    0.0006921100   -0.0084245700
  -0.0000350500    0.0006921100   -0.0084245700
   0.0000000000    0.0018681500   -0.0016291700
  -0.0000351100    0.0005785900   -0.0067850500
   0.0000351100    0.0005785900   -0.0067850500
   0.0000000000    0.0056799300   -0.0026980000
  -0.0000047000    0.0016393300   -0.0065547100
   0.0000047000    0.0016393300   -0.0065547100
   0.0000000000    0.0083793500   -0.0168808100
  -0.0005187600    0.0014362000   -0.0104883400
   0.0005187600    0.0014362000   -0.0104883400
   0.0000000000    0.0117877500   -0.0265273000
   0.0006356300    0.0015734000   -0.0105746800
  -0.0006356300    0.0015734000   -0.0105746800
   0.0000000000   -0.0020852200   -0.0038074100
  -0.0000399800   -0.0008219600   -0.0067317200
   0.0000399800   -0.0008219600   -0.0067317200
   0.0000000000   -0.0033873400   -0.0040809000
  -0.0000048000   -0.0012613300   -0.0066837900
   0.0000048000   -0.0012613300   -0.0066837900
  -0.0204237000    0.0065389400   -0.0032878300
   0.0000000000   -0.0002968500   -0.0077681500
   0.0204237000    0.0065389400   -0.0032878300
   0.0007596700    0.0005695300   -0.0073913800
   0.0000000000    0.0003880600   -0.0068635700
  -0.0007596700    0.0005695300   -0.0073913800
   0.0022671100   -0.0006106400   -0.0050894700
   0.0000000000   -0.0001940300   -0.0057746000
  -0.0022671100   -0.0006106400   -0.0050894700
   0.0019894400    0.0006308900   -0.0052771800
   0.0000000000    0.0002880800   -0.0057037000
  -0.0019894400    0.0006308900   -0.0052771800
   0.0000000000    0.0245405100    0.0125654100
  -0.0015056700    0.0020974500   -0.0062644700
   0.0015056700    0.0020974500   -0.0062644700
   0.0000000000   -0.0026638200   -0.0106176600
  -0.0003787600   -0.0007775100   -0.0085800800
   0.0003787600   -0.0007775100   -0.0085800800
   0.0000000000   -0.0034455700   -0.0106544900
   0.0002167700   -0.0005504200   -0.0085866100
  -0.0002167700   -0.0005504200   -0.0085866100
   0.0000000000    0.0171083500    0.0127314100
   0.0012848400    0.0019794600   -0.0062682600
  -0.0012848400    0.0019794600   -0.0062682600
   0.0000000000   -0.0057896800    0.0171789700
  -0.0010416600   -0.0018787100   -0.0067359700
   0.0010416600   -0.0018787100   -0.0067359700
   0.0000000000    0.0036111400   -0.0100056200
  -0.0000562400    0.0009196800   -0.0087481200
   0.0000562400    0.0009196800   -0.0087481200
   0.0000000000   -0.0113949100    0.0175442100
   0.0008201300   -0.0016233900   -0.0067416000
  -0.0008201300   -0.0016233900   -0.0067416000
   0.0000000000    0.0027841100   -0.0100209300
   0.0001421900    0.0008030900   -0.0087543400
  -0.0001421900    0.0008030900   -0.0087543400
  -0.0015699200    0.0011433700   -0.0052420800
   0.0000000000    0.0005949100   -0.0058944300
   0.0015699200    0.0011433700   -0.0052420800
  -0.0013883700   -0.0010893500   -0.0049803000
   0.0000000000   -0.0004413300   -0.0059828600
   0.0013883700   -0.0010893500   -0.0049803000
  -0.0002783000    0.0002978700   -0.0071634600
   0.0000000000    0.0001933300   -0.0067799000
   0.0002783000    0.0002978700   -0.0071634600
   0.0238701200    0.0044336900   -0.0036356900
   0.0000000000   -0.0003369300   -0.0060730700
  -0.0238701200    0.0044336900   -0.0036356900
   0.0010836000   -0.0000265700   -0.0014841600
   0.0000000000    0.0000613700   -0.0002326700
  -0.0010836000   -0.0000265700   -0.0014841600
   0.0000294200   -0.0000311100    0.0001732000
   0.0000000000   -0.0000215300    0.0002690800
  -0.0000294200   -0.0000311100    0.0001732000
   0.0016026100    0.0002215600    0.0041841100
   0.0000000000    0.0004176100    0.0007288100
  -0.0016026100    0.0002215600    0.0041841100
  -0.0007804400   -0.0014070300    0.0005780800
   0.0000000000   -0.0004118300    0.0004804300
   0.0007804400   -0.0014070300    0.0005780800
   0.0005795500   -0.0013956200    0.0009319900
   0.0000000000   -0.0004510900    0.0005718900
  -0.0005795500   -0.0013956200    0.0009319900
   0.0013251300    0.0025423400    0.0023399100
   0.0000000000    0.0003853100    0.0010211900
  -0.0013251300    0.0025423400    0.0023399100
  -0.0001453400   -0.0000194800   -0.0000435600
   0.0000000000   -0.0000312100    0.0001678100
   0.0001453400   -0.0000194800   -0.0000435600
  -0.0006846600    0.0000252300   -0.0012479300
   0.0000000000    0.0000583000   -0.0001409500
   0.0006846600    0.0000252300   -0.0012479300
   0.0000000000   -0.0263048300    0.0197792600
   0.0120776000    0.0017119400    0.0249447100
  -0.0120776000    0.0017119400    0.0249447100
   0.0000000000   -0.0072419400    0.0315595200
  -0.0002762100   -0.0012309600    0.0247485500
   0.0002762100   -0.0012309600    0.0247485500
   0.0000000000    0.0122400300    0.0094312300
  -0.0015218100    0.0015741300    0.0199699800
   0.0015218100    0.0015741300    0.0199699800
   0.0000000000   -0.0090721900    0.0121430400
  -0.0014577400   -0.0020269900    0.0197142000
   0.0014577400   -0.0020269900    0.0197142000
   0.0000000000   -0.0101784900    0.0120493000
   0.0012838500   -0.0022984000    0.0196708700
  -0.0012838500   -0.0022984000    0.0196708700
   0.0000000000    0.0103721200    0.0101887000
   0.0013176900    0.0018575700    0.0196746600
  -0.0013176900    0.0018575700    0.0196746600
   0.0000000000   -0.0051178200    0.0296769100
  -0.0000098700   -0.0014915300    0.0244913500
   0.0000098700   -0.0014915300    0.0244913500
   0.0000000000    0.0574533700    0.0943809200
  -0.0125988000    0.0019151100    0.0258088000
   0.0125988000    0.0019151100    0.0258088000

1    
  0.0000000000000000   0.0000000000000000  -0.0100000000000000
   0.0000000000    0.0934566200    0.1320018400
  -0.0002714200    0.0049861500   -0.0026753300
   0.0002714200    0.0049861500   -0.0026753300
   0.0000000000   -0.0025320100   -0.0078390300
  -0.0000368500   -0.0004568600   -0.0078839300
   0.0000368500   -0.0004568600   -0.0078839300
   0.0000000000   -0.0016394200   -0.0147487700
   0.0000383100   -0.0003436200   -0.0095365200
  -0.0000383100   -0.0003436200   -0.0095365200
   0.0000000000   -0.0054772500   -0.0136469200
   0.0000061200   -0.0014093100   -0.0097706400
  -0.0000061200   -0.0014093100   -0.0097706400
   0.0000000000   -0.0086072900    0.0006279800
   0.0005199700   -0.0016849000   -0.0058011100
  -0.0005199700   -0.0016849000   -0.0058011100
   0.0000000000   -0.0122207200    0.0100936700
  -0.0006423800   -0.0018290200   -0.0057236900
   0.0006423800   -0.0018290200   -0.0057236900
   0.0000000000    0.0018492900   -0.0125313400
   0.0000426400    0.0005892700   -0.0095919400
  -0.0000426400    0.0005892700   -0.0095919400
   0.0000000000    0.0031815300   -0.0122683600
   0.0000067000    0.0010275800   -0.0096353400
  -0.0000067000    0.0010275800   -0.0096353400
   0.0206537300   -0.0065887300   -0.0094160900
   0.0000000000    0.0002941700   -0.0049551900
  -0.0206537300   -0.0065887300   -0.0094160900
  -0.0007643200   -0.0005781500   -0.0053325300
   0.0000000000   -0.0003935100   -0.0058662500
   0.0007643200   -0.0005781500   -0.0053325300
  -0.0022621300    0.0006100700   -0.0076596700
   0.0000000000    0.0001945700   -0.0069656100
   0.0022621300    0.0006100700   -0.0076596700
  -0.0019831300   -0.0006331300   -0.0074677600
   0.0000000000   -0.0002896100   -0.0070378300
   0.0019831300   -0.0006331300   -0.0074677600
   0.0000000000   -0.0245541800   -0.0291535100
   0.0015203600   -0.0018718700   -0.0100627600
  -0.0015203600   -0.0018718700   -0.0100627600
   0.0000000000    0.0029410800   -0.0056559900
   0.0003781700    0.0010212500   -0.0077203300
  -0.0003781700    0.0010212500   -0.0077203300
   0.0000000000    0.0036754700   -0.0056913900
  -0.0002203800    0.0007944300   -0.0077274000
   0.0002203800    0.0007944300   -0.0077274000
   0.0000000000   -0.0168987100   -0.0289871000
  -0.0012952500   -0.0017623500   -0.0100669900
   0.0012952500   -0.0017623500   -0.0100669900
   0.0000000000    0.0056996900   -0.0340639400
   0.0010485600    0.0016543900   -0.0095811000
  -0.0010485600    0.0016543900   -0.0095811000
   0.0000000000   -0.0038757700   -0.0062836500
   0.0000570500   -0.0011730300   -0.0075511200
  -0.0000570500   -0.0011730300   -0.0075511200
   0.0000000000    0.0111465600   -0.0336958800
  -0.0008267500    0.0013971900   -0.0095868300
   0.0008267500    0.0013971900   -0.0095868300
   0.0000000000   -0.0030206500   -0.0062997200
  -0.0001438900   -0.0010438500   -0.0075579500
   0.0001438900   -0.0010438500   -0.0075579500
   0.0015912800   -0.0011531600   -0.0075014100
   0.0000000000   -0.0005988100   -0.0068443000
  -0.0015912800   -0.0011531600   -0.0075014100
   0.0014214000    0.0011011900   -0.0077578900
   0.0000000000    0.0004434900   -0.0067514200
  -0.0014214000    0.0011011900   -0.0077578900
   0.0002759900   -0.0002948800   -0.0055684900
   0.0000000000   -0.0001937800   -0.0059526300
  -0.0002759900   -0.0002948800   -0.0055684900
  -0.0239124700   -0.0044711600   -0.0091854500
   0.0000000000    0.0003373800   -0.0066647100
   0.0239124700   -0.0044711600   -0.0091854500
  -0.0010990300    0.0000292400    0.0022118500
   0.0000000000   -0.0000624500    0.0009517800
   0.0010990300    0.0000292400    0.0022118500
  -0.0000308400    0.0000309800    0.0005402200
   0.0000000000    0.0000216300    0.0004452100
   0.0000308400    0.0000309800    0.0005402200
  -0.0015081400   -0.0002996500   -0.0034337100
   0.0000000000   -0.0004222000   -0.0000158000
   0.0015081400   -0.0002996500   -0.0034337100
   0.0007855700    0.0014180600    0.0001400400
   0.0000000000    0.0004152700    0.0002343900
  -0.0007855700    0.0014180600    0.0001400400
  -0.0005831100    0.0014051400   -0.0002248200
   0.0000000000    0.0004549900    0.0001400300
   0.0005831100    0.0014051400   -0.0002248200
  -0.0012550400   -0.0025135800   -0.0017126000
   0.0000000000   -0.0003883800   -0.0003132100
   0.0012550400   -0.0025135800   -0.0017126000
   0.0001438900    0.0000190100    0.0007628500
   0.0000000000    0.0000309300    0.0005496000
  -0.0001438900    0.0000190100    0.0007628500
   0.0006820400   -0.0000259400    0.0019761000
   0.0000000000   -0.0000589100    0.0008609500
  -0.0006820400   -0.0000259400    0.0019761000
   0.0000000000    0.0254558600    0.0240929100
  -0.0121575500   -0.0017262200    0.0196712800
   0.0121575500   -0.0017262200    0.0196712800
   0.0000000000    0.0072982300    0.0129847800
   0.0002821800    0.0012459400    0.0198703600
  -0.0002821800    0.0012459400    0.0198703600
   0.0000000000   -0.0122321400    0.0353023000
   0.0015224900   -0.0015878200    0.0247047400
  -0.0015224900   -0.0015878200    0.0247047400
   0.0000000000    0.0090919900    0.0325507900
   0.0014546300    0.0020453300    0.0249559900
  -0.0014546300    0.0020453300    0.0249559900
   0.0000000000    0.0102796800    0.0326540800
  -0.0013008500    0.0023208500    0.0249869700
   0.0013008500    0.0023208500    0.0249869700
   0.0000000000   -0.0105435900    0.0346017600
  -0.0013389900   -0.0018745100    0.0249770700
   0.0013389900   -0.0018745100    0.0249770700
   0.0000000000    0.0051250800    0.0149794200
   0.0000150200    0.0014958100    0.0201409400
  -0.0000150200    0.0014958100    0.0201409400
   0.0000000000   -0.0532936900   -0.0469026200
   0.0126961600   -0.0019153700    0.0188268400
  -0.0126961600   -0.0019153700    0.0188268400

25   
  0.0100000000000000   0.0000000000000000   0.0000000000000000
   0.0081259200   -0.0197777700   -0.0286636800
   0.0080450400    0.0200609900    0.0124096400
   0.0042527100    0.0001486300   -0.0081237900
  -0.0006093000    0.0021391700   -0.0073900500
  -0.0006262000   -0.0018809500   -0.0089157000
   0.0011987700    0.0001197400   -0.0081530400
  -0.0006820400    0.0001157900   -0.0059057000
  -0.0006958600    0.0000993500   -0.0104339100
   0.0012990800    0.0001160300   -0.0081654400
  -0.0005430000    0.0026794000   -0.0061818200
  -0.0005453300   -0.0024642100   -0.0101543400
   0.0013837400    0.0001110100   -0.0081648300
   0.0081259200    0.0197777700   -0.0286636800
   0.0080450400   -0.0200609900    0.0124096400
   0.0042527100   -0.0001486300   -0.0081237900
  -0.0006093000   -0.0021391700   -0.0073900500