112  
48   

1    
  0.0100000000000000   0.0000000000000000   0.0000000000000000
  -0.0215107000    0.0000000000    0.0000000000
   0.0020377500    0.0000000000    0.0000000000
  -0.0000493600    0.0000000000    0.0000000000
   0.0006315700    0.0000000000    0.0000000000
   0.0011126400    0.0000000000    0.0000000000
  -0.0036936200    0.0000000000    0.0000000000
   0.0000025000    0.0000000000    0.0000000000
  -0.0006486700    0.0000000000    0.0000000000
   0.0033961200   -0.0042883200    0.0033730300
   0.0036577700    0.0032317900   -0.0020638400
  -0.0000271000    0.0003974300    0.0000283900
   0.0002001200   -0.0011264300   -0.0000499900
   0.0033924200    0.0034817100    0.0033715200
   0.0036556200   -0.0040394700   -0.0020631900
  -0.0000297700   -0.0012045500    0.0000286500
   0.0002015700    0.0003189100   -0.0000510000
   0.0033961200    0.0042883200   -0.0033730300
   0.0036577700   -0.0032317900    0.0020638400
  -0.0000271000   -0.0003974300   -0.0000283900
   0.0002001200    0.0011264300    0.0000499900
   0.0033924200   -0.0034817100   -0.0033715200
   0.0036556200    0.0040394700    0.0020631900
  -0.0000297700    0.0012045500   -0.0000286500
   0.0002015700   -0.0003189100    0.0000510000
  -0.0036895700    0.0001963400   -0.0004209000
   0.0019034800   -0.0003256100    0.0002173700
  -0.0036888000   -0.0005937200   -0.0004206000
   0.0019053300   -0.0000692200    0.0002177700
  -0.0036895700   -0.0001963400    0.0004209000
   0.0019034800    0.0003256100   -0.0002173700
  -0.0036888000    0.0005937200    0.0004206000
   0.0019053300    0.0000692200   -0.0002177700
   0.0016895100   -0.0014662000   -0.0001452400
  -0.0014833900    0.0007572700    0.0004460500
   0.0002066400    0.0002510200    0.0003684300
  -0.0006843800    0.0001354300    0.0004199100
   0.0016449700    0.0015398800   -0.0008905800
  -0.0015329500   -0.0006877700   -0.0002996500
   0.0001587000   -0.0001821700   -0.0003785300
  -0.0007315300   -0.0000634500   -0.0003258000
  -0.0005230500    0.0000632000   -0.0000013200
   0.0005602900   -0.0001305400    0.0000031500
  -0.0005230500   -0.0000632000    0.0000013200
   0.0005602900    0.0001305400   -0.0000031500
  -0.0011793100   -0.0006012500   -0.0005380100
   0.0022593200    0.0018501700    0.0002226400
  -0.0001593900    0.0002109800   -0.0003882300
   0.0005397700   -0.0001200000   -0.0004201800
  -0.0011793100    0.0006012500    0.0005380100
   0.0022593200   -0.0018501700   -0.0002226400
  -0.0001593900   -0.0002109800    0.0003882300
   0.0005397700    0.0001200000    0.0004201800
  -0.0001071500    0.0008760700   -0.0001760000
  -0.0002453400   -0.0013187700    0.0000855000
  -0.0001072400   -0.0014488400   -0.0001757500
  -0.0002449400    0.0007400600    0.0000853300
  -0.0018083000   -0.0003855300   -0.0003308200
   0.0025873200   -0.0003845100   -0.0017994900
  -0.0003595700   -0.0003863600   -0.0000142800
  -0.0002063800   -0.0003849900   -0.0000182200
  -0.0011316900   -0.0006705200   -0.0002082600
   0.0023088400    0.0017753300   -0.0009658600
  -0.0001141500    0.0001391200   -0.0003578100
   0.0005903100   -0.0001875800   -0.0003260600
  -0.0011228400    0.0007316600   -0.0000459600
  -0.0016155100   -0.0010934300   -0.0000480900
  -0.0003320700   -0.0005130100   -0.0000446500
  -0.0005091000   -0.0002254400   -0.0000475500
  -0.0000646400   -0.0000755200   -0.0000462600
   0.0001710900    0.0008953100   -0.0000482700
   0.0003458100    0.0004957900   -0.0000448900
   0.0004323800    0.0002288000   -0.0000475900
   0.0016449700   -0.0015398800    0.0008905800
  -0.0015329500    0.0006877700    0.0002996500
   0.0001587000    0.0001821700    0.0003785300
  -0.0007315300    0.0000634500    0.0003258000
  -0.0011228400   -0.0007316600    0.0000459600
  -0.0016155100    0.0010934300    0.0000480900
  -0.0003320700    0.0005130100    0.0000446500
  -0.0005091000    0.0002254400    0.0000475500
  -0.0011316900    0.0006705200    0.0002082600
   0.0023088400   -0.0017753300    0.0009658600
  -0.0001141500   -0.0001391200    0.0003578100
   0.0005903100    0.0001875800    0.0003260600
   0.0016895100    0.0014662000    0.0001452400
  -0.0014833900   -0.0007572700   -0.0004460500
   0.0002066400   -0.0002510200   -0.0003684300
  -0.0006843800   -0.0001354300   -0.0004199100
   0.0010720800   -0.0003861400    0.0000354700
  -0.0013827500   -0.0003840100    0.0003545500
   0.0003842100   -0.0003872500    0.0000104900
   0.0001368700   -0.0003842300    0.0000338700
  -0.0000646400    0.0000755200    0.0000462600
   0.0001710900   -0.0008953100    0.0000482700
   0.0003458100   -0.0004957900    0.0000448900
   0.0004323800   -0.0002288000    0.0000475900
  -0.0001071500   -0.0008760700    0.0001760000
  -0.0002453400    0.0013187700   -0.0000855000
  -0.0001072400    0.0014488400    0.0001757500
  -0.0002449400   -0.0007400600   -0.0000853300
  -0.0018083000    0.0003855300    0.0003308200
   0.0025873200    0.0003845100    0.0017994900
  -0.0003595700    0.0003863600    0.0000142800
  -0.0002063800    0.0003849900    0.0000182200
   0.0010720800    0.0003861400   -0.0000354700
  -0.0013827500    0.0003840100   -0.0003545500
   0.0003842100    0.0003872500   -0.0000104900
   0.0001368700    0.0003842300   -0.0000338700
   0.0011245100    0.0002782500   -0.0000033700
  -0.0003851800   -0.0000421600    0.0000013800
   0.0011245100   -0.0002782500    0.0000033700
  -0.0003851800    0.0000421600   -0.0000013800

1    
 -0.0100000000000000   0.0000000000000000   0.0000000000000000
   0.0222578200    0.0000000000    0.0000000000
  -0.0014184600    0.0000000000    0.0000000000
   0.0006687000    0.0000000000    0.0000000000
  -0.0000123300    0.0000000000    0.0000000000
  -0.0017321200    0.0000000000    0.0000000000
   0.0030791800    0.0000000000    0.0000000000
  -0.0006218600    0.0000000000    0.0000000000
   0.0000300300    0.0000000000    0.0000000000
  -0.0033897800    0.0034571100   -0.0033396700
  -0.0036595100   -0.0040575600    0.0020856900
   0.0000244000   -0.0012003200   -0.0000294400
  -0.0001967600    0.0003175000    0.0000496900
  -0.0033879700   -0.0042643000   -0.0033387300
  -0.0036577200    0.0032509500    0.0020839000
   0.0000240400    0.0003940200   -0.0000298100
  -0.0001967300   -0.0011248800    0.0000490900
  -0.0033897800   -0.0034571100    0.0033396700
  -0.0036595100    0.0040575600   -0.0020856900
   0.0000244000    0.0012003200    0.0000294400
  -0.0001967600   -0.0003175000   -0.0000496900
  -0.0033879700    0.0042643000    0.0033387300
  -0.0036577200   -0.0032509500   -0.0020839000
   0.0000240400   -0.0003940200    0.0000298100
  -0.0001967300    0.0011248800   -0.0000490900
   0.0036899600   -0.0005779300    0.0004144300
  -0.0019043600   -0.0000740000   -0.0002164100
   0.0036883500    0.0001798300    0.0004137600
  -0.0019039300   -0.0003235700   -0.0002162000
   0.0036899600    0.0005779300   -0.0004144300
  -0.0019043600    0.0000740000    0.0002164100
   0.0036883500   -0.0001798300   -0.0004137600
  -0.0019039300    0.0003235700    0.0002162000
  -0.0021576000    0.0017523900    0.0009496700
   0.0010136500   -0.0004786700    0.0003551100
  -0.0006732100    0.0000250500    0.0004347400
   0.0002089300    0.0001489100    0.0003820900
  -0.0022033300   -0.0016791800    0.0002043300
   0.0009643600    0.0005481500   -0.0003907600
  -0.0007212500    0.0000439700   -0.0003120500
   0.0001616300   -0.0000768400   -0.0003631300
   0.0003244000   -0.0000625100   -0.0000009000
  -0.0007595100    0.0001290400    0.0000025200
   0.0003244000    0.0000625100    0.0000009000
  -0.0007595100   -0.0001290400   -0.0000025200
   0.0016564900    0.0008799300   -0.0002673500
  -0.0018130600   -0.0015526000   -0.0010083900
   0.0006329800    0.0000720600   -0.0004137300
  -0.0000714600    0.0003964600   -0.0003825300
   0.0016564900   -0.0008799300    0.0002673500
  -0.0018130600    0.0015526000    0.0010083900
   0.0006329800   -0.0000720600    0.0004137300
  -0.0000714600   -0.0003964600    0.0003825300
   0.0001093400   -0.0014584900    0.0001747500
   0.0002424200    0.0007465500   -0.0000858400
   0.0001091000    0.0008850400    0.0001746000
   0.0002424700   -0.0013212000   -0.0000857600
   0.0012950600   -0.0003859100    0.0002798900
  -0.0032979500   -0.0003843700    0.0019253100
  -0.0001626900   -0.0003865200   -0.0000287400
  -0.0003129600   -0.0003852000   -0.0000257200
   0.0017042600    0.0008096300   -0.0004783900
  -0.0017683100   -0.0016224900    0.0002623800
   0.0006785600    0.0000001700   -0.0003315800
  -0.0000218600    0.0003279600   -0.0003637700
   0.0003742600   -0.0014785700   -0.0000461900
   0.0008088900    0.0003881400   -0.0000485700
  -0.0004779200   -0.0002000500   -0.0000453000
  -0.0003048200   -0.0004874900   -0.0000472200
   0.0008845700    0.0007866600   -0.0000461400
   0.0006375700   -0.0001833800   -0.0000486300
   0.0004657700    0.0002182800   -0.0000454900
   0.0003797100    0.0004840900   -0.0000473100
  -0.0022033300    0.0016791800   -0.0002043300
   0.0009643600   -0.0005481500    0.0003907600
  -0.0007212500   -0.0000439700    0.0003120500
   0.0001616300    0.0000768400    0.0003631300
   0.0003742600    0.0014785700    0.0000461900
   0.0008088900   -0.0003881400    0.0000485700
  -0.0004779200    0.0002000500    0.0000453000
  -0.0003048200    0.0004874900    0.0000472200
   0.0017042600   -0.0008096300    0.0004783900
  -0.0017683100    0.0016224900   -0.0002623800
   0.0006785600   -0.0000001700    0.0003315800
  -0.0000218600   -0.0003279600    0.0003637700
  -0.0021576000   -0.0017523900   -0.0009496700
   0.0010136500    0.0004786700   -0.0003551100
  -0.0006732100   -0.0000250500   -0.0004347400
   0.0002089300   -0.0001489100   -0.0003820900
  -0.0004860700   -0.0003860900    0.0000826500
   0.0019020200   -0.0003848300   -0.0003136600
   0.0001393000   -0.0003865500    0.0000329400
   0.0003801600   -0.0003851100    0.0000113400
   0.0008845700   -0.0007866600    0.0000461400
   0.0006375700    0.0001833800    0.0000486300
   0.0004657700   -0.0002182800    0.0000454900
   0.0003797100   -0.0004840900    0.0000473100
   0.0001093400    0.0014584900   -0.0001747500
   0.0002424200   -0.0007465500    0.0000858400
   0.0001091000   -0.0008850400   -0.0001746000
   0.0002424700    0.0013212000    0.0000857600
   0.0012950600    0.0003859100   -0.0002798900
  -0.0032979500    0.0003843700   -0.0019253100
  -0.0001626900    0.0003865200    0.0000287400
  -0.0003129600    0.0003852000    0.0000257200
  -0.0004860700    0.0003860900   -0.0000826500
   0.0019020200    0.0003848300    0.0003136600
   0.0001393000    0.0003865500   -0.0000329400
   0.0003801600    0.0003851100   -0.0000113400
  -0.0009231500   -0.0002846800   -0.0000022500
   0.0005837900    0.0000431400    0.0000008100
  -0.0009231500    0.0002846800    0.0000022500
   0.0005837900   -0.0000431400   -0.0000008100

1    
  0.0000000000000000   0.0100000000000000   0.0000000000000000
   0.0003245900   -0.0071272600    0.0000084500
   0.0003092000   -0.0005895800    0.0000000000
   0.0003096000    0.0009672500    0.0000000000
   0.0003093200    0.0004207900   -0.0000002000
  -0.0003098100   -0.0005143700    0.0000001300
  -0.0003081800   -0.0025245400   -0.0000003800
  -0.0003094300    0.0004127300   -0.0000001400
  -0.0003092200    0.0008500900    0.0000001900
  -0.0030526000   -0.0022313200   -0.0018264900
   0.0030899000   -0.0025502400   -0.0011983300
   0.0006360400    0.0013384200    0.0000330900
  -0.0006777300    0.0013588400    0.0001118700
   0.0030583300   -0.0022605300    0.0018282800
  -0.0030985100   -0.0025729400    0.0011992700
  -0.0006303100    0.0013357900   -0.0000348500
   0.0006719800    0.0013561200   -0.0001127200
   0.0030566100   -0.0014531500   -0.0018290000
  -0.0030959600   -0.0017688000   -0.0011999500
  -0.0006291000    0.0021442900    0.0000344700
   0.0006718200    0.0021640300    0.0001119100
  -0.0030585000   -0.0014240800    0.0018257600
   0.0030923400   -0.0017418300    0.0011987700
   0.0006338100    0.0021446200   -0.0000335200
  -0.0006757700    0.0021652400   -0.0001108000
  -0.0002201200    0.0040931800   -0.0023286600
  -0.0000361200    0.0000248700   -0.0000545800
   0.0002181400    0.0041089300    0.0023595600
   0.0000334500    0.0000179600    0.0000546600
   0.0002186800    0.0045079000   -0.0023615600
   0.0000326100    0.0004129000   -0.0000547100
  -0.0002210300    0.0044901000    0.0023284600
  -0.0000327300    0.0004200200    0.0000533000
  -0.0016277400    0.0001053500   -0.0006561100
  -0.0000649200    0.0003391400    0.0003411200
   0.0003717600   -0.0007538700    0.0005343000
  -0.0003321900   -0.0001215400    0.0004349500
   0.0010866800   -0.0001193500    0.0007092300
  -0.0004522600    0.0001237200   -0.0002901000
  -0.0008888600   -0.0009646000   -0.0004828800
  -0.0001984000   -0.0003370700   -0.0003802200
  -0.0000483500   -0.0000443600   -0.0000032600
  -0.0001729300   -0.0004560700    0.0000047400
  -0.0001495300   -0.0000431300    0.0000015600
  -0.0000258200   -0.0004551100   -0.0000000900
  -0.0000655200    0.0002794600   -0.0004631000
   0.0015841400    0.0005489300   -0.0013725900
   0.0003111100   -0.0001311400   -0.0004176200
  -0.0004807400   -0.0009230800   -0.0003360700
   0.0005499000   -0.0000078800    0.0003384000
  -0.0011337600    0.0002079500   -0.0006028200
   0.0001634500   -0.0004153400    0.0003812900
   0.0009566100   -0.0012065600    0.0004647000
   0.0004225100   -0.0009351800    0.0001185800
  -0.0005369000   -0.0009942900    0.0001083000
  -0.0004243000   -0.0009078300   -0.0001188100
   0.0005386800   -0.0010106300   -0.0001087800
  -0.0002563200    0.0007230100   -0.0000224400
  -0.0002631900    0.0022553100   -0.0000257100
  -0.0002692400   -0.0009816700   -0.0000204000
  -0.0002591500   -0.0013644400   -0.0000220600
  -0.0000291900    0.0002072600   -0.0002856400
   0.0016340900    0.0004852300    0.0006255800
   0.0003591100   -0.0002031600   -0.0003266300
  -0.0004341200   -0.0009902100   -0.0004120500
   0.0005867400    0.0004890100   -0.0000495300
  -0.0011028900    0.0000833000   -0.0000430100
  -0.0005691400   -0.0007982800   -0.0000404900
  -0.0002508400   -0.0007080500   -0.0000566700
   0.0000990500    0.0007788900   -0.0000329400
   0.0007822900    0.0008886400   -0.0000530600
   0.0005381000    0.0000226200   -0.0000497600
   0.0002998300   -0.0000324500   -0.0000424900
  -0.0016634900    0.0000326900    0.0014052400
  -0.0001181300    0.0002703600    0.0004034900
   0.0003182700   -0.0008198500    0.0002121300
  -0.0003730100   -0.0001963700    0.0003113300
  -0.0013669000    0.0012266300    0.0000328600
   0.0002939600    0.0007996000    0.0000529300
  -0.0002422600   -0.0000860200    0.0000496000
  -0.0005596200    0.0000035600    0.0000424100
   0.0006029000    0.0000589900    0.0004079800
  -0.0010890200    0.0002885900    0.0013450400
   0.0002053700   -0.0003428900    0.0003659400
   0.0010132300   -0.0011382400    0.0002790500
   0.0011341400   -0.0001949400   -0.0014524000
  -0.0004054500    0.0000547600   -0.0004571200
  -0.0008464900   -0.0010370000   -0.0002640800
  -0.0001424500   -0.0004065500   -0.0003639400
   0.0002599500    0.0020869800    0.0000214100
   0.0002674500    0.0004889700    0.0000209200
   0.0002677200   -0.0013069000    0.0000206100
   0.0002608200   -0.0009801900    0.0000219800
   0.0007154800    0.0000643000    0.0000498300
   0.0000271600    0.0001722000    0.0000430500
   0.0002711300   -0.0006894000    0.0000407500
   0.0005132300   -0.0007436400    0.0000566400
  -0.0004241800   -0.0003526400    0.0001190200
   0.0005386900   -0.0004168400    0.0001088000
   0.0004224100   -0.0003525200   -0.0001184800
  -0.0005364800   -0.0004279900   -0.0001081900
  -0.0002629100    0.0015013000    0.0000215100
  -0.0002579800    0.0030242400    0.0000272700
  -0.0002637000   -0.0002092900    0.0000214500
  -0.0002675900   -0.0005978900    0.0000208100
   0.0002693200    0.0028664600   -0.0000195200
   0.0002605200    0.0012577000   -0.0000219800
   0.0002625500   -0.0005331300   -0.0000216100
   0.0002680900   -0.0002146600   -0.0000208800
   0.0002136200   -0.0018133400   -0.0000051200
   0.0000438300   -0.0000594700    0.0000032600
  -0.0000146600   -0.0018274300   -0.0000000600
   0.0001554800   -0.0000580600   -0.0000015800

1    
  0.0000000000000000   0.0000000000000000   0.0100000000000000
   0.0003763200    0.0000082300   -0.0182496200
   0.0003094500    0.0000001400   -0.0002707000
   0.0003096100   -0.0000001400   -0.0001018500
   0.0003096600    0.0000000300   -0.0000367700
  -0.0003096600    0.0000000400    0.0002708900
  -0.0003124200   -0.0000000700    0.0073713700
  -0.0003095300    0.0000000100    0.0000365400
  -0.0003094700    0.0000000500    0.0000994200
   0.0031598600   -0.0024901700    0.0000557600
  -0.0029390200   -0.0021626000    0.0006580700
   0.0001250200   -0.0001460300   -0.0000278200
  -0.0001444700   -0.0001065600    0.0000265500
   0.0031576200    0.0016859700    0.0000536600
  -0.0029411300    0.0013539900    0.0006578000
   0.0001268500   -0.0006663400   -0.0000270300
  -0.0001421400   -0.0006994200    0.0000297000
  -0.0031451100   -0.0016832600    0.0000724000
   0.0029308300   -0.0013572700    0.0006687700
  -0.0001218800    0.0006552500   -0.0000240800
   0.0001436400    0.0006970200    0.0000284800
  -0.0031481500    0.0024949300    0.0000697700
   0.0029324800    0.0021620500    0.0006698000
  -0.0001280100    0.0001463200   -0.0000236500
   0.0001432200    0.0001127100    0.0000340600
   0.0001431200   -0.0031575400    0.0003087000
  -0.0000146100   -0.0003404400   -0.0000028700
   0.0001486500    0.0027603500    0.0002989600
  -0.0000139200   -0.0000567100   -0.0000014800
  -0.0001466900   -0.0027531100    0.0003187700
   0.0000109300    0.0000507100   -0.0000040700
  -0.0001534500    0.0031519100    0.0003096400
   0.0000145300    0.0003407200   -0.0000035100
  -0.0008298000   -0.0012379700   -0.0003050300
  -0.0000789600    0.0000283100    0.0003637700
  -0.0003174000    0.0003643800    0.0003646000
  -0.0001803200    0.0001801900    0.0003806200
  -0.0008667100    0.0013113800   -0.0010543500
  -0.0001310900    0.0000438400   -0.0003796100
  -0.0003706100   -0.0002947200   -0.0003801300
  -0.0002261900   -0.0001113400   -0.0003672500
  -0.0001019600    0.0000000900   -0.0001634200
  -0.0000992600    0.0000013500   -0.0012657100
  -0.0000994900    0.0000002000   -0.0001613300
  -0.0001023100   -0.0000009200   -0.0012698600
   0.0001172400    0.0000335700   -0.0003641700
   0.0005158300   -0.0008590700   -0.0001525400
   0.0001792800    0.0001739600   -0.0003789300
   0.0003390400    0.0004196200   -0.0003579100
   0.0003612000   -0.0002517600    0.0004353500
  -0.0000616300   -0.0011597000    0.0006237100
   0.0002914700   -0.0001098400    0.0004196800
   0.0001308700    0.0001388300    0.0004409900
  -0.0002044700    0.0000619600    0.0000431500
   0.0002572400    0.0001628600   -0.0000507600
  -0.0002041600   -0.0006314600    0.0000431900
   0.0002572200   -0.0007421000   -0.0000508100
  -0.0011705400   -0.0003955300    0.0001321400
  -0.0020009500   -0.0003785100    0.0024239100
  -0.0002845000   -0.0003801400   -0.0000183800
  -0.0002343700   -0.0003890200   -0.0000289500
   0.0004201500    0.0001879500   -0.0003102100
  -0.0000137900    0.0010833400   -0.0001182800
   0.0003255100    0.0000331400   -0.0003275400
   0.0001898100   -0.0002038000   -0.0003036100
  -0.0003982800   -0.0003582100    0.0020913200
  -0.0004056700   -0.0003564400    0.0013193400
  -0.0004053700   -0.0003560100    0.0001308000
  -0.0004027400   -0.0003568100    0.0001204400
   0.0004076100    0.0003559600   -0.0013142500
   0.0004060400    0.0003559500   -0.0017913300
   0.0004006600    0.0003572800   -0.0002055400
   0.0004071600    0.0003558800   -0.0002336900
   0.0002950900    0.0014437600   -0.0003716700
  -0.0004389100    0.0001882500    0.0003123600
  -0.0001913400   -0.0001521000    0.0003136000
  -0.0003440800    0.0000313200    0.0003246000
  -0.0004039300    0.0003582400    0.0021804700
  -0.0004039200    0.0003571300    0.0014215000
  -0.0004006600    0.0003569100    0.0002188600
  -0.0004071400    0.0003559100    0.0002182000
   0.0001518800    0.0000425300    0.0003832100
   0.0005689600    0.0009249200    0.0005937800
   0.0002350400   -0.0001078100    0.0003662900
   0.0003819300   -0.0003482800    0.0003893000
   0.0003475000   -0.0015166900   -0.0011134900
  -0.0003872700   -0.0002542900   -0.0004342900
  -0.0001509600    0.0000823700   -0.0004352500
  -0.0002926200   -0.0001050300   -0.0004186100
   0.0001849100   -0.0003952500    0.0014357700
   0.0012004600   -0.0003798600   -0.0001555900
   0.0002482400   -0.0003796300    0.0000264100
   0.0002748100   -0.0003882800    0.0000211100
   0.0004017000   -0.0003563800   -0.0012246300
   0.0004074200   -0.0003550400   -0.0016890000
   0.0004058100   -0.0003566500   -0.0001170700
   0.0004030900   -0.0003566600   -0.0001359000
   0.0002036200    0.0006443500    0.0000415700
  -0.0002575300    0.0007417200   -0.0000515200
   0.0002032300   -0.0000717300    0.0000415400
  -0.0002571200   -0.0001557400   -0.0000514400
   0.0006374800    0.0003775100    0.0001721300
   0.0013332400    0.0003858100    0.0023740700
  -0.0002551900    0.0003935700    0.0000216700
  -0.0002987900    0.0003789700    0.0000123300
   0.0004371800    0.0003792000    0.0012910400
  -0.0006637300    0.0003843600   -0.0001973600
   0.0002906500    0.0003954600   -0.0000146000
   0.0002574600    0.0003786600   -0.0000216400
   0.0001018100   -0.0000027400    0.0013470000
   0.0001020500    0.0000000000    0.0001654600
   0.0001012600    0.0000032300    0.0013512800
   0.0001004900    0.0000005200    0.0001634400

9    
  0.0100000000000000   0.0000000000000000   0.0000000000000000
   0.0036999700   -0.0030444500    0.0031395200
   0.0039733600    0.0031037500   -0.0029449300
   0.0002858400    0.0006325700    0.0001245200
   0.0005063700   -0.0006738300   -0.0001429800
   0.0030837000    0.0030666400    0.0031640200
   0.0033462300   -0.0030821000   -0.0029245800
  -0.0003381800   -0.0006341200    0.0001247400
  -0.0001091800    0.0006723100   -0.0001427100
  -0.1749439200   -0.0004622400   -0.0171061600
   0.0111045600   -0.0004141500   -0.0009604000
  -0.0019529900   -0.0004175300    0.0001499900
   0.0016211800   -0.0004164000   -0.0000588200
  -0.0185963200   -0.0004093000    0.0018903900
   0.0042798700   -0.0003829400   -0.0000239100
  -0.0075752400   -0.0003580700    0.0009054200
   0.0048902800   -0.0003968100   -0.0002938700
  -0.0048289900    0.0004040100    0.0003268100
   0.0035632100    0.0004216700   -0.0001252600
  -0.0045988300    0.0004209100   -0.0002829200
   0.0039261900    0.0004119000    0.0000960800
  -0.0140817800    0.0003962000    0.0081658200
   0.0065454000    0.0003899700    0.0000044000
  -0.0015656000    0.0003901400   -0.0000753000
   0.0014823000    0.0003903500    0.0000316300
   0.0165117400    0.0189704100    0.0035565300
   0.0166069800   -0.0195011100    0.0035528400
   0.0008647900   -0.0023413400    0.0003239300
   0.0008506800    0.0019433600    0.0003211700
   0.0001428700   -0.0009378600   -0.0000853500
   0.0001309500    0.0013370800   -0.0000833500
   0.0018416600    0.0028875100   -0.0001836500
   0.0018214500   -0.0024934200   -0.0001748100
  -0.0014606900    0.0033790300    0.0004495100
  -0.0013076900   -0.0002736900    0.0004415300
   0.0035882100   -0.0042888500    0.0003681700
  -0.0027242800    0.0018376600    0.0003633100
   0.0391347300    0.0038987500   -0.0121029700
  -0.0079094900   -0.0018335700   -0.0012195400
   0.0002759400    0.0003112600   -0.0003605800
  -0.0007666000   -0.0002674900   -0.0003357500
  -0.0013843400    0.0023707400   -0.0049799700
  -0.0024489600   -0.0019204200    0.0041259900
  -0.0000561100   -0.0003507800   -0.0003301500
  -0.0003484200    0.0003582200    0.0003255200
  -0.0009634100   -0.0030973200   -0.0003565000
  -0.0008395900    0.0005369700   -0.0003624700
   0.0040927700    0.0045683900   -0.0004390700
  -0.0022475800   -0.0015641200   -0.0004418000
   0.0024509100   -0.0003909300    0.0017244100
  -0.0023084500    0.0005653600    0.0001315700
   0.0006896500   -0.0003348800    0.0004382500
  -0.0002162200    0.0000541200    0.0003856000
   0.0072708300   -0.0001598300    0.0001921800
  -0.0022381600   -0.0002818100    0.0000863100
   0.0009931300   -0.0002806300   -0.0000461700
  -0.0005784800   -0.0002880700    0.0000001500
   0.0266863800    0.0123026000   -0.0031670800
  -0.0027726800    0.0006429300    0.0001073000
   0.0006442200    0.0003974200   -0.0001380200
  -0.0009356200   -0.0008423800    0.0000227000
   0.0009187500   -0.0004925900   -0.0000880100
  -0.0004735900    0.0004623700   -0.0004867100
   0.0021793500    0.0015935000   -0.0001940000
  -0.0016867400   -0.0012780700   -0.0003840800
   0.0124813400   -0.0016498500    0.0165326400
  -0.0025214000   -0.0003017400    0.0000718100
  -0.0000010500   -0.0003740200   -0.0000587500
  -0.0007846900   -0.0003310900   -0.0000424500
   0.0029517000   -0.0003014000   -0.0007083600
  -0.0006901100    0.0005620500   -0.0000285800
   0.0016903200    0.0005150700   -0.0000873300
  -0.0005806600    0.0002136900   -0.0000200100
   0.0003422000    0.0006225500    0.0005995400
  -0.0010366200   -0.0003412400    0.0002005600
   0.0016012200   -0.0014636500    0.0004946100
  -0.0022535300    0.0014068100    0.0003029200
   0.0021285200    0.0010092200   -0.0006344900
  -0.0015054300    0.0001373500    0.0000673000
   0.0008732500    0.0001799200   -0.0000074900
  -0.0013970800    0.0004903900    0.0000693600
   0.0427801300   -0.0049720300   -0.0122462300
  -0.0073291300    0.0017175500   -0.0005359400
   0.0008473700   -0.0004373500    0.0003278400
  -0.0002005700    0.0001409700    0.0003526000
   0.0019403600    0.0001108200    0.0009031700
  -0.0027778900   -0.0008300100   -0.0006753900
   0.0002109400    0.0000661000   -0.0003659100
  -0.0006839300   -0.0003210300   -0.0004174700
   0.0267696200   -0.0121917700   -0.0030098900
  -0.0022744900   -0.0014212900    0.0001549200
   0.0011432300   -0.0011711700   -0.0000898400
  -0.0004356000    0.0000701200    0.0000708700
   0.0131034500    0.0009527200    0.0167472800
  -0.0017042800   -0.0004005600    0.0001611600
   0.0008154800   -0.0003283100    0.0000283100
   0.0000300300   -0.0003710100    0.0000521500
   0.0005690100    0.0002883400   -0.0000501200
  -0.0005043300    0.0002857000    0.0000165200
   0.0023073400    0.0002709000   -0.0006531500
  -0.0014496300    0.0002886400    0.0000835900
   0.0024258200   -0.0004477600   -0.0002935700
  -0.0023333300    0.0007648600   -0.0000662700
   0.0003989900    0.0007707000    0.0000821000
  -0.0008583400    0.0000551100   -0.0000092100
   0.0029081400    0.0012409100   -0.0003465700
  -0.0018344900    0.0000036600   -0.0001146600
   0.0008976500    0.0000029900    0.0000335000
  -0.0003551500    0.0007178800   -0.0000571400
  -0.0011856800   -0.0023541000   -0.0049569300
  -0.0022504500    0.0019248500    0.0041280800
   0.0001361200    0.0003508700   -0.0003294400
  -0.0001507000   -0.0003584000    0.0003259100

9    
  0.0000000000000000   0.0100000000000000   0.0000000000000000
  -0.0035696700   -0.0018555700   -0.0020918300
   0.0039484900   -0.0021681900   -0.0017605100
   0.0010982700    0.0017459800    0.0002564000
  -0.0004158700    0.0017629100    0.0002944400
   0.0035696700   -0.0018555700    0.0020918300
  -0.0039484900   -0.0021681900    0.0017605100
  -0.0010982700    0.0017459800   -0.0002564000
   0.0004158700    0.0017629100   -0.0002944400
   0.0000000000   -0.1877453500    0.0000000000
   0.0000000000   -0.0052535300    0.0000000000
   0.0000000000    0.0085656900    0.0000000000
   0.0000000000    0.0031150300    0.0000000000
   0.0000000000    0.0343736100    0.0000000000
   0.0000000000   -0.0008862600    0.0000000000
   0.0000000000    0.0271851900    0.0000000000
   0.0000000000    0.0011625700    0.0000000000
   0.0000000000    0.0025692300    0.0000000000
   0.0000000000    0.0002803000    0.0000000000
   0.0000000000    0.0036660700    0.0000000000
   0.0000000000    0.0014963400    0.0000000000
   0.0000000000   -0.0125759400    0.0000000000
   0.0000000000   -0.0038470300    0.0000000000
   0.0000000000    0.0071553700    0.0000000000
   0.0000000000    0.0036428400    0.0000000000
   0.0138619500   -0.0003650300    0.0008832500
  -0.0138619500   -0.0003650300   -0.0008832500
  -0.0031867100    0.0053830300   -0.0005714800
   0.0031867100    0.0053830300    0.0005714800
  -0.0016341700    0.0038539800    0.0001143600
   0.0016341700    0.0038539800   -0.0001143600
   0.0025159000   -0.0029653000    0.0004565900
  -0.0025159000   -0.0029653000   -0.0004565900
   0.0044979000   -0.0053510900    0.0001819400
  -0.0017661600    0.0001560100    0.0003146500
  -0.0065783000   -0.0020948600    0.0012384200
   0.0017392400   -0.0007177500    0.0005671800
   0.0088585100    0.0110808300   -0.0027926900
   0.0020304100    0.0022241900    0.0000862900
  -0.0008762500   -0.0025605500   -0.0004859900
  -0.0009460900   -0.0013970000   -0.0004265200
   0.0021534900    0.0005175100    0.0028755400
  -0.0012093900    0.0005067400    0.0016266400
  -0.0006856600   -0.0011406700   -0.0006062000
   0.0004588100   -0.0009409300   -0.0005662800
  -0.0044979000   -0.0053510900   -0.0001819400
   0.0017661600    0.0001560100   -0.0003146500
   0.0065783000   -0.0020948600   -0.0012384200
  -0.0017392400   -0.0007177500   -0.0005671800
  -0.0008347600    0.0029561900   -0.0001791600
  -0.0007362600    0.0017272400    0.0004388600
   0.0007052500   -0.0019614800    0.0003165300
   0.0008402300   -0.0013854400    0.0003316000
   0.0000000000    0.0533501900    0.0000000000
   0.0000000000    0.0007781300    0.0000000000
   0.0000000000   -0.0056692200    0.0000000000
   0.0000000000   -0.0016660300    0.0000000000