64   
1    

1    
  0.0100000000000000   0.0000000000000000   0.0000000000000000
  -0.1054354300    0.0000000000    0.0000000000
   0.0001405800    0.0000000000    0.0000000000
   0.0004412700    0.0000000000    0.0000000000
  -0.0001202500    0.0000000000    0.0000000000
   0.0004412700    0.0000000000    0.0000000000
  -0.0001202500    0.0000000000    0.0000000000
  -0.0037946300    0.0000000000    0.0000000000
   0.0001680500    0.0000000000    0.0000000000
  -0.0040767300    0.0008085700    0.0008085700
   0.0000037200    0.0000576700    0.0000576700
  -0.0040623300    0.0008005900   -0.0008005900
   0.0000063300    0.0000587300   -0.0000587300
  -0.0040623300   -0.0008005900    0.0008005900
   0.0000063300   -0.0000587300    0.0000587300
  -0.0040767300   -0.0008085700   -0.0008085700
   0.0000037200   -0.0000576700   -0.0000576700
   0.0015325900   -0.0007998700    0.0014828700
   0.0015490100   -0.0008094600   -0.0014963500
   0.0002894400   -0.0000582300   -0.0006199500
   0.0002899400   -0.0000580400    0.0006180900
   0.0015325900    0.0007998700   -0.0014828700
   0.0015490100    0.0008094600    0.0014963500
   0.0002894400    0.0000582300    0.0006199500
   0.0002899400    0.0000580400   -0.0006180900
   0.0015325900    0.0014828700   -0.0007998700
   0.0015490100   -0.0014963500   -0.0008094600
   0.0015325900   -0.0014828700    0.0007998700
   0.0015490100    0.0014963500    0.0008094600
   0.0002894400   -0.0006199500   -0.0000582300
   0.0002899400    0.0006180900   -0.0000580400
   0.0002894400    0.0006199500    0.0000582300
   0.0002899400   -0.0006180900    0.0000580400
  -0.0001562600    0.0002428000    0.0002428000
   0.0020891300    0.0001530500    0.0001530500
   0.0001563000    0.0001497900    0.0000997600
  -0.0004346300    0.0004398600    0.0002712800
   0.0001563000    0.0000997600    0.0001497900
  -0.0004346300    0.0002712800    0.0004398600
  -0.0000926600    0.0002700100    0.0002700100
   0.0263264800    0.0146789200    0.0146789200
  -0.0000926600   -0.0002700100   -0.0002700100
   0.0263264800   -0.0146789200   -0.0146789200
   0.0001563000   -0.0000997600   -0.0001497900
  -0.0004346300   -0.0002712800   -0.0004398600
   0.0001563000   -0.0001497900   -0.0000997600
  -0.0004346300   -0.0004398600   -0.0002712800
  -0.0001562600   -0.0002428000   -0.0002428000
   0.0020891300   -0.0001530500   -0.0001530500
  -0.0004310200   -0.0002681000    0.0004439500
   0.0001610600   -0.0001037900    0.0001559300
   0.0260456300   -0.0142407300    0.0142407300
  -0.0000929700   -0.0002695800    0.0002695800
   0.0020804400   -0.0001525600    0.0001525600
  -0.0001564700   -0.0002419200    0.0002419200
  -0.0004310200   -0.0004439500    0.0002681000
   0.0001610600   -0.0001559300    0.0001037900
  -0.0004310200    0.0004439500   -0.0002681000
   0.0001610600    0.0001559300   -0.0001037900
   0.0020804400    0.0001525600   -0.0001525600
  -0.0001564700    0.0002419200   -0.0002419200
   0.0260456300    0.0142407300   -0.0142407300
  -0.0000929700    0.0002695800   -0.0002695800
  -0.0004310200    0.0002681000   -0.0004439500
   0.0001610600    0.0001037900   -0.0001559300
