64   
1    

1    
  0.0100000000000000   0.0000000000000000   0.0000000000000000
  -0.1916379200    0.0000000000    0.0000000000
   0.0002881600    0.0000000000    0.0000000000
   0.0005070500    0.0000000000    0.0000000000
   0.0001745500    0.0000000000    0.0000000000
   0.0005070500    0.0000000000    0.0000000000
   0.0001745500    0.0000000000    0.0000000000
  -0.0040805400    0.0000000000    0.0000000000
   0.0003273300    0.0000000000    0.0000000000
  -0.0046737700    0.0011550300    0.0011550300
  -0.0001039700    0.0001214900    0.0001214900
  -0.0046700400    0.0011351600   -0.0011351600
  -0.0001010700    0.0001214300   -0.0001214300
  -0.0046700400   -0.0011351600    0.0011351600
  -0.0001010700   -0.0001214300    0.0001214300
  -0.0046737700   -0.0011550300   -0.0011550300
  -0.0001039700   -0.0001214900   -0.0001214900
   0.0026288700   -0.0011386200    0.0026745800
   0.0026447600   -0.0011516700   -0.0026861000
   0.0004330000   -0.0001212300   -0.0006264900
   0.0004336200   -0.0001217200    0.0006250800
   0.0026288700    0.0011386200   -0.0026745800
   0.0026447600    0.0011516700    0.0026861000
   0.0004330000    0.0001212300    0.0006264900
   0.0004336200    0.0001217200   -0.0006250800
   0.0026288700    0.0026745800   -0.0011386200
   0.0026447600   -0.0026861000   -0.0011516700
   0.0026288700   -0.0026745800    0.0011386200
   0.0026447600    0.0026861000    0.0011516700
   0.0004330000   -0.0006264900   -0.0001212300
   0.0004336200    0.0006250800   -0.0001217200
   0.0004330000    0.0006264900    0.0001212300
   0.0004336200   -0.0006250800    0.0001217200
  -0.0001957600    0.0002729400    0.0002729400
   0.0020401900    0.0003911600    0.0003911600
   0.0003366600    0.0003880600    0.0004349800
  -0.0006034900    0.0003604100    0.0004071200
   0.0003366600    0.0004349800    0.0003880600
  -0.0006034900    0.0004071200    0.0003604100
  -0.0000473500    0.0004057900    0.0004057900
   0.0459602300    0.0420694000    0.0420694000
  -0.0000473500   -0.0004057900   -0.0004057900
   0.0459602300   -0.0420694000   -0.0420694000
   0.0003366600   -0.0004349800   -0.0003880600
  -0.0006034900   -0.0004071200   -0.0003604100
   0.0003366600   -0.0003880600   -0.0004349800
  -0.0006034900   -0.0003604100   -0.0004071200
  -0.0001957600   -0.0002729400   -0.0002729400
   0.0020401900   -0.0003911600   -0.0003911600
  -0.0005966200   -0.0004009200    0.0003634300
   0.0003420000   -0.0004392400    0.0003922900
   0.0456289700   -0.0411161400    0.0411161400
  -0.0000440100   -0.0004021900    0.0004021900
   0.0020337800   -0.0003888700    0.0003888700
  -0.0001949400   -0.0002710400    0.0002710400
  -0.0005966200   -0.0003634300    0.0004009200
   0.0003420000   -0.0003922900    0.0004392400
  -0.0005966200    0.0003634300   -0.0004009200
   0.0003420000    0.0003922900   -0.0004392400
   0.0020337800    0.0003888700   -0.0003888700
  -0.0001949400    0.0002710400   -0.0002710400
   0.0456289700    0.0411161400   -0.0411161400
  -0.0000440100    0.0004021900   -0.0004021900
  -0.0005966200    0.0004009200   -0.0003634300
   0.0003420000    0.0004392400   -0.0003922900
