64   
1    

1    
  0.0100000000000000   0.0000000000000000   0.0000000000000000
  -0.2328900000    0.0000000000    0.0000000000
   0.0005169200    0.0000000000    0.0000000000
   0.0006649600    0.0000000000    0.0000000000
   0.0004477200    0.0000000000    0.0000000000
   0.0006649600    0.0000000000    0.0000000000
   0.0004477200    0.0000000000    0.0000000000
  -0.0040358800    0.0000000000    0.0000000000
   0.0005723100    0.0000000000    0.0000000000
  -0.0049523500    0.0012695900    0.0012695900
  -0.0002134100    0.0001538000    0.0001538000
  -0.0049547700    0.0012447800   -0.0012447800
  -0.0002101700    0.0001530600   -0.0001530600
  -0.0049547700   -0.0012447800    0.0012447800
  -0.0002101700   -0.0001530600    0.0001530600
  -0.0049523500   -0.0012695900   -0.0012695900
  -0.0002134100   -0.0001538000   -0.0001538000
   0.0028913100   -0.0012497200    0.0030778700
   0.0029051200   -0.0012649000   -0.0030867300
   0.0004550600   -0.0001532300   -0.0006318300
   0.0004555900   -0.0001537800    0.0006308000
   0.0028913100    0.0012497200   -0.0030778700
   0.0029051200    0.0012649000    0.0030867300
   0.0004550600    0.0001532300    0.0006318300
   0.0004555900    0.0001537800   -0.0006308000
   0.0028913100    0.0030778700   -0.0012497200
   0.0029051200   -0.0030867300   -0.0012649000
   0.0028913100   -0.0030778700    0.0012497200
   0.0029051200    0.0030867300    0.0012649000
   0.0004550600   -0.0006318300   -0.0001532300
   0.0004555900    0.0006308000   -0.0001537800
   0.0004550600    0.0006318300    0.0001532300
   0.0004555900   -0.0006308000    0.0001537800
  -0.0002288300    0.0003371300    0.0003371300
   0.0019794800    0.0005286500    0.0005286500
   0.0004083200    0.0005262600    0.0006301400
  -0.0006375000    0.0003846600    0.0004867300
   0.0004083200    0.0006301400    0.0005262600
  -0.0006375000    0.0004867300    0.0003846600
   0.0000198800    0.0004861800    0.0004861800
   0.0557023400    0.0571369000    0.0571369000
   0.0000198800   -0.0004861800   -0.0004861800
   0.0557023400   -0.0571369000   -0.0571369000
   0.0004083200   -0.0006301400   -0.0005262600
  -0.0006375000   -0.0004867300   -0.0003846600
   0.0004083200   -0.0005262600   -0.0006301400
  -0.0006375000   -0.0003846600   -0.0004867300
  -0.0002288300   -0.0003371300   -0.0003371300
   0.0019794800   -0.0005286500   -0.0005286500
  -0.0006303200   -0.0004783500    0.0003863300
   0.0004126900   -0.0006334100    0.0005278400
   0.0553716900   -0.0559140900    0.0559140900
   0.0000274100   -0.0004787200    0.0004787200
   0.0019718500   -0.0005250300    0.0005250300
  -0.0002280100   -0.0003339300    0.0003339300
  -0.0006303200   -0.0003863300    0.0004783500
   0.0004126900   -0.0005278400    0.0006334100
  -0.0006303200    0.0003863300   -0.0004783500
   0.0004126900    0.0005278400   -0.0006334100
   0.0019718500    0.0005250300   -0.0005250300
  -0.0002280100    0.0003339300   -0.0003339300
   0.0553716900    0.0559140900   -0.0559140900
   0.0000274100    0.0004787200   -0.0004787200
  -0.0006303200    0.0004783500   -0.0003863300
   0.0004126900    0.0006334100   -0.0005278400
