64   
1    

1    
  0.0100000000000000   0.0000000000000000   0.0000000000000000
  -0.2182827900    0.0000000000    0.0000000000
   0.0004080300    0.0000000000    0.0000000000
   0.0005838400    0.0000000000    0.0000000000
   0.0003279100    0.0000000000    0.0000000000
   0.0005838400    0.0000000000    0.0000000000
   0.0003279100    0.0000000000    0.0000000000
  -0.0040795100    0.0000000000    0.0000000000
   0.0004589400    0.0000000000    0.0000000000
  -0.0048449800    0.0012303400    0.0012303400
  -0.0001640400    0.0001418900    0.0001418900
  -0.0048450200    0.0012073800   -0.0012073800
  -0.0001609700    0.0001412500   -0.0001412500
  -0.0048450200   -0.0012073800    0.0012073800
  -0.0001609700   -0.0001412500    0.0001412500
  -0.0048449800   -0.0012303400   -0.0012303400
  -0.0001640400   -0.0001418900   -0.0001418900
   0.0028191400   -0.0012119500    0.0029440300
   0.0028337700   -0.0012262800   -0.0029536800
   0.0004546000   -0.0001414100   -0.0006312700
   0.0004549800   -0.0001419100    0.0006300000
   0.0028191400    0.0012119500   -0.0029440300
   0.0028337700    0.0012262800    0.0029536800
   0.0004546000    0.0001414100    0.0006312700
   0.0004549800    0.0001419100   -0.0006300000
   0.0028191400    0.0029440300   -0.0012119500
   0.0028337700   -0.0029536800   -0.0012262800
   0.0028191400   -0.0029440300    0.0012119500
   0.0028337700    0.0029536800    0.0012262800
   0.0004546000   -0.0006312700   -0.0001414100
   0.0004549800    0.0006300000   -0.0001419100
   0.0004546000    0.0006312700    0.0001414100
   0.0004549800   -0.0006300000    0.0001419100
  -0.0002166700    0.0003064500    0.0003064500
   0.0020027600    0.0004728800    0.0004728800
   0.0003862000    0.0004701000    0.0005538900
  -0.0006282900    0.0003661500    0.0004539000
   0.0003862000    0.0005538900    0.0004701000
  -0.0006282900    0.0004539000    0.0003661500
  -0.0000101500    0.0004530800    0.0004530800
   0.0522254400    0.0516739900    0.0516739900
  -0.0000101500   -0.0004530800   -0.0004530800
   0.0522254400   -0.0516739900   -0.0516739900
   0.0003862000   -0.0005538900   -0.0004701000
  -0.0006282900   -0.0004539000   -0.0003661500
   0.0003862000   -0.0004701000   -0.0005538900
  -0.0006282900   -0.0003661500   -0.0004539000
  -0.0002166700   -0.0003064500   -0.0003064500
   0.0020027600   -0.0004728800   -0.0004728800
  -0.0006209900   -0.0004463700    0.0003685600
   0.0003909500   -0.0005574800    0.0004730200
   0.0518931000   -0.0505486400    0.0505486400
  -0.0000042600   -0.0004473300    0.0004473300
   0.0019962000   -0.0004698900    0.0004698900
  -0.0002162200   -0.0003036900    0.0003036900
  -0.0006209900   -0.0003685600    0.0004463700
   0.0003909500   -0.0004730200    0.0005574800
  -0.0006209900    0.0003685600   -0.0004463700
   0.0003909500    0.0004730200   -0.0005574800
   0.0019962000    0.0004698900   -0.0004698900
  -0.0002162200    0.0003036900   -0.0003036900
   0.0518931000    0.0505486400   -0.0505486400
  -0.0000042600    0.0004473300   -0.0004473300
  -0.0006209900    0.0004463700   -0.0003685600
   0.0003909500    0.0005574800   -0.0004730200
