64   
1    

1    
  0.0100000000000000   0.0000000000000000   0.0000000000000000
  -0.1474292700    0.0000000000    0.0000000000
   0.0001906000    0.0000000000    0.0000000000
   0.0004596200    0.0000000000    0.0000000000
  -0.0000031900    0.0000000000    0.0000000000
   0.0004596200    0.0000000000    0.0000000000
  -0.0000031900    0.0000000000    0.0000000000
  -0.0039723500    0.0000000000    0.0000000000
   0.0002173300    0.0000000000    0.0000000000
  -0.0043986600    0.0010071800    0.0010071800
  -0.0000415600    0.0000887400    0.0000887400
  -0.0043889500    0.0009929500   -0.0009929500
  -0.0000388500    0.0000893100   -0.0000893100
  -0.0043889500   -0.0009929500    0.0009929500
  -0.0000388500   -0.0000893100    0.0000893100
  -0.0043986600   -0.0010071800   -0.0010071800
  -0.0000415600   -0.0000887400   -0.0000887400
   0.0021561500   -0.0009946000    0.0021291400
   0.0021736200   -0.0010056600   -0.0021430900
   0.0003690200   -0.0000890900   -0.0006190100
   0.0003695400   -0.0000891800    0.0006174200
   0.0021561500    0.0009946000   -0.0021291400
   0.0021736200    0.0010056600    0.0021430900
   0.0003690200    0.0000890900    0.0006190100
   0.0003695400    0.0000891800   -0.0006174200
   0.0021561500    0.0021291400   -0.0009946000
   0.0021736200   -0.0021430900   -0.0010056600
   0.0021561500   -0.0021291400    0.0009946000
   0.0021736200    0.0021430900    0.0010056600
   0.0003690200   -0.0006190100   -0.0000890900
   0.0003695400    0.0006174200   -0.0000891800
   0.0003690200    0.0006190100    0.0000890900
   0.0003695400   -0.0006174200    0.0000891800
  -0.0001718700    0.0002474200    0.0002474200
   0.0020817900    0.0002744400    0.0002744400
   0.0002477700    0.0002709700    0.0002566900
  -0.0005331900    0.0003896200    0.0003339500
   0.0002477700    0.0002566900    0.0002709700
  -0.0005331900    0.0003339500    0.0003896200
  -0.0000677700    0.0003323600    0.0003323600
   0.0357649100    0.0271952200    0.0271952200
  -0.0000677700   -0.0003323600   -0.0003323600
   0.0357649100   -0.0271952200   -0.0271952200
   0.0002477700   -0.0002566900   -0.0002709700
  -0.0005331900   -0.0003339500   -0.0003896200
   0.0002477700   -0.0002709700   -0.0002566900
  -0.0005331900   -0.0003896200   -0.0003339500
  -0.0001718700   -0.0002474200   -0.0002474200
   0.0020817900   -0.0002744400   -0.0002744400
  -0.0005275300   -0.0003294000    0.0003933200
   0.0002532900   -0.0002610900    0.0002766100
   0.0354487800   -0.0265141900    0.0265141900
  -0.0000676600   -0.0003312500    0.0003312500
   0.0020744000   -0.0002730600    0.0002730600
  -0.0001714700   -0.0002462700    0.0002462700
  -0.0005275300   -0.0003933200    0.0003294000
   0.0002532900   -0.0002766100    0.0002610900
  -0.0005275300    0.0003933200   -0.0003294000
   0.0002532900    0.0002766100   -0.0002610900
   0.0020744000    0.0002730600   -0.0002730600
  -0.0001714700    0.0002462700   -0.0002462700
   0.0354487800    0.0265141900   -0.0265141900
  -0.0000676600    0.0003312500   -0.0003312500
  -0.0005275300    0.0003294000   -0.0003933200
   0.0002532900    0.0002610900   -0.0002766100
