64   
1    

1    
  0.0100000000000000   0.0000000000000000   0.0000000000000000
  -0.1206963700    0.0000000000    0.0000000000
   0.0001552700    0.0000000000    0.0000000000
   0.0004477000    0.0000000000    0.0000000000
  -0.0000806800    0.0000000000    0.0000000000
   0.0004477000    0.0000000000    0.0000000000
  -0.0000806800    0.0000000000    0.0000000000
  -0.0038681500    0.0000000000    0.0000000000
   0.0001818000    0.0000000000    0.0000000000
  -0.0042059400    0.0008901400    0.0008901400
  -0.0000126900    0.0000689000    0.0000689000
  -0.0041932200    0.0008797900   -0.0008797900
  -0.0000100700    0.0000699200   -0.0000699200
  -0.0041932200   -0.0008797900    0.0008797900
  -0.0000100700   -0.0000699200    0.0000699200
  -0.0042059400   -0.0008901400   -0.0008901400
  -0.0000126900   -0.0000689000   -0.0000689000
   0.0017764200   -0.0008799400    0.0017301500
   0.0017937400   -0.0008901500   -0.0017445800
   0.0003201900   -0.0000695000   -0.0006183900
   0.0003205000   -0.0000694800    0.0006164400
   0.0017764200    0.0008799400   -0.0017301500
   0.0017937400    0.0008901500    0.0017445800
   0.0003201900    0.0000695000    0.0006183900
   0.0003205000    0.0000694800   -0.0006164400
   0.0017764200    0.0017301500   -0.0008799400
   0.0017937400   -0.0017445800   -0.0008901500
   0.0017764200   -0.0017301500    0.0008799400
   0.0017937400    0.0017445800    0.0008901500
   0.0003201900   -0.0006183900   -0.0000695000
   0.0003205000    0.0006164400   -0.0000694800
   0.0003201900    0.0006183900    0.0000695000
   0.0003205000   -0.0006164400    0.0000694800
  -0.0001617500    0.0002424100    0.0002424100
   0.0020915900    0.0001993000    0.0001993000
   0.0001913900    0.0001958200    0.0001547700
  -0.0004737000    0.0004198100    0.0002923000
   0.0001913900    0.0001547700    0.0001958200
  -0.0004737000    0.0002923000    0.0004198100
  -0.0000795300    0.0002909100    0.0002909100
   0.0297307200    0.0190136900    0.0190136900
  -0.0000795300   -0.0002909100   -0.0002909100
   0.0297307200   -0.0190136900   -0.0190136900
   0.0001913900   -0.0001547700   -0.0001958200
  -0.0004737000   -0.0002923000   -0.0004198100
   0.0001913900   -0.0001958200   -0.0001547700
  -0.0004737000   -0.0004198100   -0.0002923000
  -0.0001617500   -0.0002424100   -0.0002424100
   0.0020915900   -0.0001993000   -0.0001993000
  -0.0004693500   -0.0002885100    0.0004236600
   0.0001964500   -0.0001587100    0.0002019600
   0.0294345700   -0.0184888500    0.0184888500
  -0.0000798000   -0.0002902500    0.0002902500
   0.0020833700   -0.0001984500    0.0001984500
  -0.0001618400   -0.0002413700    0.0002413700
  -0.0004693500   -0.0004236600    0.0002885100
   0.0001964500   -0.0002019600    0.0001587100
  -0.0004693500    0.0004236600   -0.0002885100
   0.0001964500    0.0002019600   -0.0001587100
   0.0020833700    0.0001984500   -0.0001984500
  -0.0001618400    0.0002413700   -0.0002413700
   0.0294345700    0.0184888500   -0.0184888500
  -0.0000798000    0.0002902500   -0.0002902500
  -0.0004693500    0.0002885100   -0.0004236600
   0.0001964500    0.0001587100   -0.0002019600
