64   
1    

1    
  0.0100000000000000   0.0000000000000000   0.0000000000000000
  -0.1681748000    0.0000000000    0.0000000000
   0.0002283700    0.0000000000    0.0000000000
   0.0004765600    0.0000000000    0.0000000000
   0.0000712200    0.0000000000    0.0000000000
   0.0004765600    0.0000000000    0.0000000000
   0.0000712200    0.0000000000    0.0000000000
  -0.0040333300    0.0000000000    0.0000000000
   0.0002584100    0.0000000000    0.0000000000
  -0.0045315600    0.0010819000    0.0010819000
  -0.0000675900    0.0001041800    0.0001041800
  -0.0045245700    0.0010647500   -0.0010647500
  -0.0000645900    0.0001044200   -0.0001044200
  -0.0045245700   -0.0010647500    0.0010647500
  -0.0000645900   -0.0001044200    0.0001044200
  -0.0045315600   -0.0010819000   -0.0010819000
  -0.0000675900   -0.0001041800   -0.0001041800
   0.0024019400   -0.0010675200    0.0024025700
   0.0024187600   -0.0010794400   -0.0024154900
   0.0004020600   -0.0001042500   -0.0006218600
   0.0004025700   -0.0001042400    0.0006203400
   0.0024019400    0.0010675200   -0.0024025700
   0.0024187600    0.0010794400    0.0024154900
   0.0004020600    0.0001042500    0.0006218600
   0.0004025700    0.0001042400   -0.0006203400
   0.0024019400    0.0024025700   -0.0010675200
   0.0024187600   -0.0024154900   -0.0010794400
   0.0024019400   -0.0024025700    0.0010675200
   0.0024187600    0.0024154900    0.0010794400
   0.0004020600   -0.0006218600   -0.0001042500
   0.0004025700    0.0006203400   -0.0001042400
   0.0004020600    0.0006218600    0.0001042500
   0.0004025700   -0.0006203400    0.0001042400
  -0.0001818000    0.0002565100    0.0002565100
   0.0020653000    0.0003286800    0.0003286800
   0.0002902300    0.0003253200    0.0003395700
  -0.0005706800    0.0003721900    0.0003685000
   0.0002902300    0.0003395700    0.0003253200
  -0.0005706800    0.0003685000    0.0003721900
  -0.0000614900    0.0003669800    0.0003669800
   0.0405178000    0.0339891900    0.0339891900
  -0.0000614900   -0.0003669800   -0.0003669800
   0.0405178000   -0.0339891900   -0.0339891900
   0.0002902300   -0.0003395700   -0.0003253200
  -0.0005706800   -0.0003685000   -0.0003721900
   0.0002902300   -0.0003253200   -0.0003395700
  -0.0005706800   -0.0003721900   -0.0003685000
  -0.0001818000   -0.0002565100   -0.0002565100
   0.0020653000   -0.0003286800   -0.0003286800
  -0.0005643500   -0.0003630800    0.0003756300
   0.0002959000   -0.0003442100    0.0003305000
   0.0401921000   -0.0331824600    0.0331824600
  -0.0000605900   -0.0003649100    0.0003649100
   0.0020582800   -0.0003271100    0.0003271100
  -0.0001812400   -0.0002551200    0.0002551200
  -0.0005643500   -0.0003756300    0.0003630800
   0.0002959000   -0.0003305000    0.0003442100
  -0.0005643500    0.0003756300   -0.0003630800
   0.0002959000    0.0003305000   -0.0003442100
   0.0020582800    0.0003271100   -0.0003271100
  -0.0001812400    0.0002551200   -0.0002551200
   0.0401921000    0.0331824600   -0.0331824600
  -0.0000605900    0.0003649100   -0.0003649100
  -0.0005643500    0.0003630800   -0.0003756300
   0.0002959000    0.0003442100   -0.0003305000
