64   
1    

1    
  0.0100000000000000   0.0000000000000000   0.0000000000000000
  -0.1574746500    0.0000000000    0.0000000000
   0.0002072100    0.0000000000    0.0000000000
   0.0004670200    0.0000000000    0.0000000000
   0.0000315600    0.0000000000    0.0000000000
   0.0004670200    0.0000000000    0.0000000000
   0.0000315600    0.0000000000    0.0000000000
  -0.0040038600    0.0000000000    0.0000000000
   0.0002347800    0.0000000000    0.0000000000
  -0.0044643800    0.0010447600    0.0010447600
  -0.0000538200    0.0000963200    0.0000963200
  -0.0044559400    0.0010290900   -0.0010290900
  -0.0000509600    0.0000967000   -0.0000967000
  -0.0044559400   -0.0010290900    0.0010290900
  -0.0000509600   -0.0000967000    0.0000967000
  -0.0044643800   -0.0010447600   -0.0010447600
  -0.0000538200   -0.0000963200   -0.0000963200
   0.0022808100   -0.0010309800    0.0022651400
   0.0022979900   -0.0010427300   -0.0022786200
   0.0003860900   -0.0000963000   -0.0006202900
   0.0003863600   -0.0000964300    0.0006188000
   0.0022808100    0.0010309800   -0.0022651400
   0.0022979900    0.0010427300    0.0022786200
   0.0003860900    0.0000963000    0.0006202900
   0.0003863600    0.0000964300   -0.0006188000
   0.0022808100    0.0022651400   -0.0010309800
   0.0022979900   -0.0022786200   -0.0010427300
   0.0022808100   -0.0022651400    0.0010309800
   0.0022979900    0.0022786200    0.0010427300
   0.0003860900   -0.0006202900   -0.0000963000
   0.0003863600    0.0006188000   -0.0000964300
   0.0003860900    0.0006202900    0.0000963000
   0.0003863600   -0.0006188000    0.0000964300
  -0.0001762000    0.0002510700    0.0002510700
   0.0020748600    0.0003007600    0.0003007600
   0.0002688900    0.0002971700    0.0002968500
  -0.0005526400    0.0003802400    0.0003509900
   0.0002688900    0.0002968500    0.0002971700
  -0.0005526400    0.0003509900    0.0003802400
  -0.0000658400    0.0003493200    0.0003493200
   0.0380579100    0.0304433800    0.0304433800
  -0.0000658400   -0.0003493200   -0.0003493200
   0.0380579100   -0.0304433800   -0.0304433800
   0.0002688900   -0.0002968500   -0.0002971700
  -0.0005526400   -0.0003509900   -0.0003802400
   0.0002688900   -0.0002971700   -0.0002968500
  -0.0005526400   -0.0003802400   -0.0003509900
  -0.0001762000   -0.0002510700   -0.0002510700
   0.0020748600   -0.0003007600   -0.0003007600
  -0.0005465900   -0.0003461000    0.0003835300
   0.0002743800   -0.0003011800    0.0003026400
   0.0377369400   -0.0297019700    0.0297019700
  -0.0000653500   -0.0003477800    0.0003477800
   0.0020676800   -0.0002989800    0.0002989800
  -0.0001757900   -0.0002498500    0.0002498500
  -0.0005465900   -0.0003835300    0.0003461000
   0.0002743800   -0.0003026400    0.0003011800
  -0.0005465900    0.0003835300   -0.0003461000
   0.0002743800    0.0003026400   -0.0003011800
   0.0020676800    0.0002989800   -0.0002989800
  -0.0001757900    0.0002498500   -0.0002498500
   0.0377369400    0.0297019700   -0.0297019700
  -0.0000653500    0.0003477800   -0.0003477800
  -0.0005465900    0.0003461000   -0.0003835300
   0.0002743800    0.0003011800   -0.0003026400
