64   
1    

1    
  0.0100000000000000   0.0000000000000000   0.0000000000000000
  -0.2483776500    0.0000000000    0.0000000000
   0.0007124000    0.0000000000    0.0000000000
   0.0008293600    0.0000000000    0.0000000000
   0.0006539500    0.0000000000    0.0000000000
   0.0008293600    0.0000000000    0.0000000000
   0.0006539500    0.0000000000    0.0000000000
  -0.0039052200    0.0000000000    0.0000000000
   0.0007767300    0.0000000000    0.0000000000
  -0.0050960300    0.0013094700    0.0013094700
  -0.0002938700    0.0001673800    0.0001673800
  -0.0051010300    0.0012828500   -0.0012828500
  -0.0002904400    0.0001662900   -0.0001662900
  -0.0051010300   -0.0012828500    0.0012828500
  -0.0002904400   -0.0001662900    0.0001662900
  -0.0050960300   -0.0013094700   -0.0013094700
  -0.0002938700   -0.0001673800   -0.0001673800
   0.0029353400   -0.0012883400    0.0032121800
   0.0029479900   -0.0013042100   -0.0032202200
   0.0004392300   -0.0001665800   -0.0006309200
   0.0004398200   -0.0001671300    0.0006301200
   0.0029353400    0.0012883400   -0.0032121800
   0.0029479900    0.0013042100    0.0032202200
   0.0004392300    0.0001665800    0.0006309200
   0.0004398200    0.0001671300   -0.0006301200
   0.0029353400    0.0032121800   -0.0012883400
   0.0029479900   -0.0032202200   -0.0013042100
   0.0029353400   -0.0032121800    0.0012883400
   0.0029479900    0.0032202200    0.0013042100
   0.0004392300   -0.0006309200   -0.0001665800
   0.0004398200    0.0006301200   -0.0001671300
   0.0004392300    0.0006309200    0.0001665800
   0.0004398200   -0.0006301200    0.0001671300
  -0.0002473100    0.0003936500    0.0003936500
   0.0019465200    0.0006102200    0.0006102200
   0.0004259600    0.0006082300    0.0007344500
  -0.0006472100    0.0004281000    0.0005408300
   0.0004259600    0.0007344500    0.0006082300
  -0.0006472100    0.0005408300    0.0004281000
   0.0000528500    0.0005406800    0.0005406800
   0.0594298800    0.0631074800    0.0631074800
   0.0000528500   -0.0005406800   -0.0005406800
   0.0594298800   -0.0631074800   -0.0631074800
   0.0004259600   -0.0007344500   -0.0006082300
  -0.0006472100   -0.0005408300   -0.0004281000
   0.0004259600   -0.0006082300   -0.0007344500
  -0.0006472100   -0.0004281000   -0.0005408300
  -0.0002473100   -0.0003936500   -0.0003936500
   0.0019465200   -0.0006102200   -0.0006102200
  -0.0006407500   -0.0005310100    0.0004285700
   0.0004293200   -0.0007366200    0.0006075600
   0.0591022700   -0.0617787200    0.0617787200
   0.0000615000   -0.0005311700    0.0005311700
   0.0019371400   -0.0006053700    0.0006053700
  -0.0002473100   -0.0003888800    0.0003888800
  -0.0006407500   -0.0004285700    0.0005310100
   0.0004293200   -0.0006075600    0.0007366200
  -0.0006407500    0.0004285700   -0.0005310100
   0.0004293200    0.0006075600   -0.0007366200
   0.0019371400    0.0006053700   -0.0006053700
  -0.0002473100    0.0003888800   -0.0003888800
   0.0591022700    0.0617787200   -0.0617787200
   0.0000615000    0.0005311700   -0.0005311700
  -0.0006407500    0.0005310100   -0.0004285700
   0.0004293200    0.0007366200   -0.0006075600
