64   
1    

1    
  0.0100000000000000   0.0000000000000000   0.0000000000000000
  -0.2045394700    0.0000000000    0.0000000000
   0.0003372400    0.0000000000    0.0000000000
   0.0005362000    0.0000000000    0.0000000000
   0.0002424800    0.0000000000    0.0000000000
   0.0005362000    0.0000000000    0.0000000000
   0.0002424800    0.0000000000    0.0000000000
  -0.0040895200    0.0000000000    0.0000000000
   0.0003809500    0.0000000000    0.0000000000
  -0.0047536800    0.0011922300    0.0011922300
  -0.0001294400    0.0001311700    0.0001311700
  -0.0047516200    0.0011709000   -0.0011709000
  -0.0001261600    0.0001309500   -0.0001309500
  -0.0047516200   -0.0011709000    0.0011709000
  -0.0001261600   -0.0001309500    0.0001309500
  -0.0047536800   -0.0011922300   -0.0011922300
  -0.0001294400   -0.0001311700   -0.0001311700
   0.0027307100   -0.0011747400    0.0028098500
   0.0027460700   -0.0011884500   -0.0028206700
   0.0004456400   -0.0001310200   -0.0006291900
   0.0004461000   -0.0001313600    0.0006279700
   0.0027307100    0.0011747400   -0.0028098500
   0.0027460700    0.0011884500    0.0028206700
   0.0004456400    0.0001310200    0.0006291900
   0.0004461000    0.0001313600   -0.0006279700
   0.0027307100    0.0028098500   -0.0011747400
   0.0027460700   -0.0028206700   -0.0011884500
   0.0027307100   -0.0028098500    0.0011747400
   0.0027460700    0.0028206700    0.0011884500
   0.0004456400   -0.0006291900   -0.0001310200
   0.0004461000    0.0006279700   -0.0001313600
   0.0004456400    0.0006291900    0.0001310200
   0.0004461000   -0.0006279700    0.0001313600
  -0.0002049400    0.0002860800    0.0002860800
   0.0020231000    0.0004283300    0.0004283300
   0.0003615000    0.0004255400    0.0004902200
  -0.0006171800    0.0003601800    0.0004288300
   0.0003615000    0.0004902200    0.0004255400
  -0.0006171800    0.0004288300    0.0003601800
  -0.0000319700    0.0004276600    0.0004276600
   0.0489800300    0.0466658200    0.0466658200
  -0.0000319700   -0.0004276600   -0.0004276600
   0.0489800300   -0.0466658200   -0.0466658200
   0.0003615000   -0.0004902200   -0.0004255400
  -0.0006171800   -0.0004288300   -0.0003601800
   0.0003615000   -0.0004255400   -0.0004902200
  -0.0006171800   -0.0003601800   -0.0004288300
  -0.0002049400   -0.0002860800   -0.0002860800
   0.0020231000   -0.0004283300   -0.0004283300
  -0.0006101200   -0.0004219900    0.0003628700
   0.0003665500   -0.0004941600    0.0004291400
   0.0486477800   -0.0456299900    0.0456299900
  -0.0000276000   -0.0004229500    0.0004229500
   0.0020168300   -0.0004257700    0.0004257700
  -0.0002041200   -0.0002838600    0.0002838600
  -0.0006101200   -0.0003628700    0.0004219900
   0.0003665500   -0.0004291400    0.0004941600
  -0.0006101200    0.0003628700   -0.0004219900
   0.0003665500    0.0004291400   -0.0004941600
   0.0020168300    0.0004257700   -0.0004257700
  -0.0002041200    0.0002838600   -0.0002838600
   0.0486477800    0.0456299900   -0.0456299900
  -0.0000276000    0.0004229500   -0.0004229500
  -0.0006101200    0.0004219900   -0.0003628700
   0.0003665500    0.0004941600   -0.0004291400
