64   
1    

1    
  0.0100000000000000   0.0000000000000000   0.0000000000000000
  -0.1290734900    0.0000000000    0.0000000000
   0.0001657000    0.0000000000    0.0000000000
   0.0004500000    0.0000000000    0.0000000000
  -0.0000581200    0.0000000000    0.0000000000
   0.0004500000    0.0000000000    0.0000000000
  -0.0000581200    0.0000000000    0.0000000000
  -0.0039040800    0.0000000000    0.0000000000
   0.0001922600    0.0000000000    0.0000000000
  -0.0042696600    0.0009299500    0.0009299500
  -0.0000211000    0.0000751900    0.0000751900
  -0.0042577700    0.0009185700   -0.0009185700
  -0.0000185100    0.0000759700   -0.0000759700
  -0.0042577700   -0.0009185700    0.0009185700
  -0.0000185100   -0.0000759700    0.0000759700
  -0.0042696600   -0.0009299500   -0.0009299500
  -0.0000211000   -0.0000751900   -0.0000751900
   0.0019023900   -0.0009190800    0.0018598700
   0.0019199700   -0.0009295100   -0.0018745000
   0.0003363400   -0.0000758000   -0.0006180300
   0.0003367700   -0.0000755900    0.0006161300
   0.0019023900    0.0009190800   -0.0018598700
   0.0019199700    0.0009295100    0.0018745000
   0.0003363400    0.0000758000    0.0006180300
   0.0003367700    0.0000755900   -0.0006161300
   0.0019023900    0.0018598700   -0.0009190800
   0.0019199700   -0.0018745000   -0.0009295100
   0.0019023900   -0.0018598700    0.0009190800
   0.0019199700    0.0018745000    0.0009295100
   0.0003363400   -0.0006180300   -0.0000758000
   0.0003367700    0.0006161300   -0.0000755900
   0.0003363400    0.0006180300    0.0000758000
   0.0003367700   -0.0006161300    0.0000755900
  -0.0001650100    0.0002426700    0.0002426700
   0.0020903100    0.0002237300    0.0002237300
   0.0002096700    0.0002205500    0.0001859000
  -0.0004938000    0.0004099500    0.0003048000
   0.0002096700    0.0001859000    0.0002205500
  -0.0004938000    0.0003048000    0.0004099500
  -0.0000748500    0.0003032800    0.0003032800
   0.0316104800    0.0214982800    0.0214982800
  -0.0000748500   -0.0003032800   -0.0003032800
   0.0316104800   -0.0214982800   -0.0214982800
   0.0002096700   -0.0001859000   -0.0002205500
  -0.0004938000   -0.0003048000   -0.0004099500
   0.0002096700   -0.0002205500   -0.0001859000
  -0.0004938000   -0.0004099500   -0.0003048000
  -0.0001650100   -0.0002426700   -0.0002426700
   0.0020903100   -0.0002237300   -0.0002237300
  -0.0004890700   -0.0003007400    0.0004136300
   0.0002147800   -0.0001900500    0.0002263800
   0.0313068500   -0.0209252000    0.0209252000
  -0.0000748600   -0.0003022600    0.0003022600
   0.0020825900   -0.0002228000    0.0002228000
  -0.0001646400   -0.0002419300    0.0002419300
  -0.0004890700   -0.0004136300    0.0003007400
   0.0002147800   -0.0002263800    0.0001900500
  -0.0004890700    0.0004136300   -0.0003007400
   0.0002147800    0.0002263800   -0.0001900500
   0.0020825900    0.0002228000   -0.0002228000
  -0.0001646400    0.0002419300   -0.0002419300
   0.0313068500    0.0209252000   -0.0209252000
  -0.0000748600    0.0003022600   -0.0003022600
  -0.0004890700    0.0003007400   -0.0004136300
   0.0002147800    0.0001900500   -0.0002263800
