64   
1    

1    
  0.0100000000000000   0.0000000000000000   0.0000000000000000
  -0.1128388900    0.0000000000    0.0000000000
   0.0001476400    0.0000000000    0.0000000000
   0.0004440100    0.0000000000    0.0000000000
  -0.0001000700    0.0000000000    0.0000000000
   0.0004440100    0.0000000000    0.0000000000
  -0.0001000700    0.0000000000    0.0000000000
  -0.0038308800    0.0000000000    0.0000000000
   0.0001727100    0.0000000000    0.0000000000
  -0.0041420800    0.0008496900    0.0008496900
  -0.0000038200    0.0000631400    0.0000631400
  -0.0041282600    0.0008404100   -0.0008404100
  -0.0000011400    0.0000641500   -0.0000641500
  -0.0041282600   -0.0008404100    0.0008404100
  -0.0000011400   -0.0000641500    0.0000641500
  -0.0041420800   -0.0008496900   -0.0008496900
  -0.0000038200   -0.0000631400   -0.0000631400
   0.0016531100   -0.0008402500    0.0016036300
   0.0016700000   -0.0008501500   -0.0016177200
   0.0003048800   -0.0000637200   -0.0006188200
   0.0003051500   -0.0000635800    0.0006169700
   0.0016531100    0.0008402500   -0.0016036300
   0.0016700000    0.0008501500    0.0016177200
   0.0003048800    0.0000637200    0.0006188200
   0.0003051500    0.0000635800   -0.0006169700
   0.0016531100    0.0016036300   -0.0008402500
   0.0016700000   -0.0016177200   -0.0008501500
   0.0016531100   -0.0016036300    0.0008402500
   0.0016700000    0.0016177200    0.0008501500
   0.0003048800   -0.0006188200   -0.0000637200
   0.0003051500    0.0006169700   -0.0000635800
   0.0003048800    0.0006188200    0.0000637200
   0.0003051500   -0.0006169700    0.0000635800
  -0.0001588900    0.0002422300    0.0002422300
   0.0020915200    0.0001757800    0.0001757800
   0.0001736000    0.0001723900    0.0001259600
  -0.0004540500    0.0004299700    0.0002811100
   0.0001736000    0.0001259600    0.0001723900
  -0.0004540500    0.0002811100    0.0004299700
  -0.0000857200    0.0002797700    0.0002797700
   0.0279737900    0.0167459700    0.0167459700
  -0.0000857200   -0.0002797700   -0.0002797700
   0.0279737900   -0.0167459700   -0.0167459700
   0.0001736000   -0.0001259600   -0.0001723900
  -0.0004540500   -0.0002811100   -0.0004299700
   0.0001736000   -0.0001723900   -0.0001259600
  -0.0004540500   -0.0004299700   -0.0002811100
  -0.0001588900   -0.0002422300   -0.0002422300
   0.0020915200   -0.0001757800   -0.0001757800
  -0.0004500600   -0.0002776600    0.0004338900
   0.0001784700   -0.0001298900    0.0001784900
   0.0276851000   -0.0162661200    0.0162661200
  -0.0000858600   -0.0002792400    0.0002792400
   0.0020829600   -0.0001751400    0.0001751400
  -0.0001590100   -0.0002413200    0.0002413200
  -0.0004500600   -0.0004338900    0.0002776600
   0.0001784700   -0.0001784900    0.0001298900
  -0.0004500600    0.0004338900   -0.0002776600
   0.0001784700    0.0001784900   -0.0001298900
   0.0020829600    0.0001751400   -0.0001751400
  -0.0001590100    0.0002413200   -0.0002413200
   0.0276851000    0.0162661200   -0.0162661200
  -0.0000858600    0.0002792400   -0.0002792400
  -0.0004500600    0.0002776600   -0.0004338900
   0.0001784700    0.0001298900   -0.0001784900
