64   
1    

1    
  0.0100000000000000   0.0000000000000000   0.0000000000000000
  -0.0919827600    0.0000000000    0.0000000000
   0.0001312100    0.0000000000    0.0000000000
   0.0004358200    0.0000000000    0.0000000000
  -0.0001570700    0.0000000000    0.0000000000
   0.0004358200    0.0000000000    0.0000000000
  -0.0001570700    0.0000000000    0.0000000000
  -0.0037193700    0.0000000000    0.0000000000
   0.0001572500    0.0000000000    0.0000000000
  -0.0039452900    0.0007233600    0.0007233600
   0.0000158200    0.0000466400    0.0000466400
  -0.0039301000    0.0007176900   -0.0007176900
   0.0000179500    0.0000468600   -0.0000468600
  -0.0039301000   -0.0007176900    0.0007176900
   0.0000179500   -0.0000468600    0.0000468600
  -0.0039452900   -0.0007233600   -0.0007233600
   0.0000158200   -0.0000466400   -0.0000466400
   0.0013080000   -0.0007171800    0.0012637600
   0.0013235700   -0.0007257200   -0.0012768800
   0.0002585000   -0.0000462200   -0.0006214500
   0.0002578600   -0.0000460100    0.0006208100
   0.0013080000    0.0007171800   -0.0012637600
   0.0013235700    0.0007257200    0.0012768800
   0.0002585000    0.0000462200    0.0006214500
   0.0002578600    0.0000460100   -0.0006208100
   0.0013080000    0.0012637600   -0.0007171800
   0.0013235700   -0.0012768800   -0.0007257200
   0.0013080000   -0.0012637600    0.0007171800
   0.0013235700    0.0012768800    0.0007257200
   0.0002585000   -0.0006214500   -0.0000462200
   0.0002578600    0.0006208100   -0.0000460100
   0.0002585000    0.0006214500    0.0000462200
   0.0002578600   -0.0006208100    0.0000460100
  -0.0001517900    0.0002450400    0.0002450400
   0.0020787000    0.0001112600    0.0001112600
   0.0001254700    0.0001056100    0.0000508400
  -0.0003936600    0.0004568100    0.0002532000
   0.0001254700    0.0000508400    0.0001056100
  -0.0003936600    0.0002532000    0.0004568100
  -0.0001047400    0.0002526800    0.0002526800
   0.0233299900    0.0110961600    0.0110961600
  -0.0001047400   -0.0002526800   -0.0002526800
   0.0233299900   -0.0110961600   -0.0110961600
   0.0001254700   -0.0000508400   -0.0001056100
  -0.0003936600   -0.0002532000   -0.0004568100
   0.0001254700   -0.0001056100   -0.0000508400
  -0.0003936600   -0.0004568100   -0.0002532000
  -0.0001517900   -0.0002450400   -0.0002450400
   0.0020787000   -0.0001112600   -0.0001112600
  -0.0003906500   -0.0002497700    0.0004614900
   0.0001296900   -0.0000540400    0.0001136900
   0.0230657600   -0.0107307600    0.0107307600
  -0.0001064100   -0.0002518000    0.0002518000
   0.0020718700   -0.0001101800    0.0001101800
  -0.0001512300   -0.0002443300    0.0002443300
  -0.0003906500   -0.0004614900    0.0002497700
   0.0001296900   -0.0001136900    0.0000540400
  -0.0003906500    0.0004614900   -0.0002497700
   0.0001296900    0.0001136900   -0.0000540400
   0.0020718700    0.0001101800   -0.0001101800
  -0.0001512300    0.0002443300   -0.0002443300
   0.0230657600    0.0107307600   -0.0107307600
  -0.0001064100    0.0002518000   -0.0002518000
  -0.0003906500    0.0002497700   -0.0004614900
   0.0001296900    0.0000540400   -0.0001136900
