64   
1    

1    
  0.0100000000000000   0.0000000000000000   0.0000000000000000
  -0.1379657800    0.0000000000    0.0000000000
   0.0001770000    0.0000000000    0.0000000000
   0.0004551400    0.0000000000    0.0000000000
  -0.0000337800    0.0000000000    0.0000000000
   0.0004551400    0.0000000000    0.0000000000
  -0.0000337800    0.0000000000    0.0000000000
  -0.0039365200    0.0000000000    0.0000000000
   0.0002010600    0.0000000000    0.0000000000
  -0.0043339500    0.0009681000    0.0009681000
  -0.0000311000    0.0000809900    0.0000809900
  -0.0043229100    0.0009556400   -0.0009556400
  -0.0000287000    0.0000814100   -0.0000814100
  -0.0043229100   -0.0009556400    0.0009556400
  -0.0000287000   -0.0000814100    0.0000814100
  -0.0043339500   -0.0009681000   -0.0009681000
  -0.0000311000   -0.0000809900   -0.0000809900
   0.0020311300   -0.0009568800    0.0019955900
   0.0020481900   -0.0009675500   -0.0020103400
   0.0003522100   -0.0000809000   -0.0006173200
   0.0003517700   -0.0000810800    0.0006159900
   0.0020311300    0.0009568800   -0.0019955900
   0.0020481900    0.0009675500    0.0020103400
   0.0003522100    0.0000809000    0.0006173200
   0.0003517700    0.0000810800   -0.0006159900
   0.0020311300    0.0019955900   -0.0009568800
   0.0020481900   -0.0020103400   -0.0009675500
   0.0020311300   -0.0019955900    0.0009568800
   0.0020481900    0.0020103400    0.0009675500
   0.0003522100   -0.0006173200   -0.0000809000
   0.0003517700    0.0006159900   -0.0000810800
   0.0003522100    0.0006173200    0.0000809000
   0.0003517700   -0.0006159900    0.0000810800
  -0.0001696200    0.0002453700    0.0002453700
   0.0020871600    0.0002485200    0.0002485200
   0.0002290700    0.0002445600    0.0002197200
  -0.0005141700    0.0003994700    0.0003181500
   0.0002290700    0.0002197200    0.0002445600
  -0.0005141700    0.0003181500    0.0003994700
  -0.0000697600    0.0003170300    0.0003170300
   0.0336161500    0.0242222900    0.0242222900
  -0.0000697600   -0.0003170300   -0.0003170300
   0.0336161500   -0.0242222900   -0.0242222900
   0.0002290700   -0.0002197200   -0.0002445600
  -0.0005141700   -0.0003181500   -0.0003994700
   0.0002290700   -0.0002445600   -0.0002197200
  -0.0005141700   -0.0003994700   -0.0003181500
  -0.0001696200   -0.0002453700   -0.0002453700
   0.0020871600   -0.0002485200   -0.0002485200
  -0.0005083800   -0.0003137800    0.0004034800
   0.0002337000   -0.0002234000    0.0002508000
   0.0333056700   -0.0235966300    0.0235966300
  -0.0000709100   -0.0003153200    0.0003153200
   0.0020812200   -0.0002476100    0.0002476100
  -0.0001695100   -0.0002443000    0.0002443000
  -0.0005083800   -0.0004034800    0.0003137800
   0.0002337000   -0.0002508000    0.0002234000
  -0.0005083800    0.0004034800   -0.0003137800
   0.0002337000    0.0002508000   -0.0002234000
   0.0020812200    0.0002476100   -0.0002476100
  -0.0001695100    0.0002443000   -0.0002443000
   0.0333056700    0.0235966300   -0.0235966300
  -0.0000709100    0.0003153200   -0.0003153200
  -0.0005083800    0.0003137800   -0.0004034800
   0.0002337000    0.0002234000   -0.0002508000
