64   
1    

1    
  0.0100000000000000   0.0000000000000000   0.0000000000000000
  -0.0984855200    0.0000000000    0.0000000000
   0.0001363500    0.0000000000    0.0000000000
   0.0004380500    0.0000000000    0.0000000000
  -0.0001385700    0.0000000000    0.0000000000
   0.0004380500    0.0000000000    0.0000000000
  -0.0001385700    0.0000000000    0.0000000000
  -0.0037587400    0.0000000000    0.0000000000
   0.0001635600    0.0000000000    0.0000000000
  -0.0040117200    0.0007673400    0.0007673400
   0.0000111700    0.0000523800    0.0000523800
  -0.0039968500    0.0007605400   -0.0007605400
   0.0000140300    0.0000536200   -0.0000536200
  -0.0039968500   -0.0007605400    0.0007605400
   0.0000140300   -0.0000536200    0.0000536200
  -0.0040117200   -0.0007673400   -0.0007673400
   0.0000111700   -0.0000523800   -0.0000523800
   0.0014167800   -0.0007593600    0.0013677800
   0.0014327600   -0.0007687200   -0.0013810000
   0.0002756000   -0.0000530400   -0.0006213100
   0.0002759900   -0.0000527100    0.0006193800
   0.0014167800    0.0007593600   -0.0013677800
   0.0014327600    0.0007687200    0.0013810000
   0.0002756000    0.0000530400    0.0006213100
   0.0002759900    0.0000527100   -0.0006193800
   0.0014167800    0.0013677800   -0.0007593600
   0.0014327600   -0.0013810000   -0.0007687200
   0.0014167800   -0.0013677800    0.0007593600
   0.0014327600    0.0013810000    0.0007687200
   0.0002756000   -0.0006213100   -0.0000530400
   0.0002759900    0.0006193800   -0.0000527100
   0.0002756000    0.0006213100    0.0000530400
   0.0002759900   -0.0006193800    0.0000527100
  -0.0001543100    0.0002435100    0.0002435100
   0.0020849300    0.0001309700    0.0001309700
   0.0001395100    0.0001276300    0.0000747500
  -0.0004154100    0.0004492300    0.0002621800
   0.0001395100    0.0000747500    0.0001276300
  -0.0004154100    0.0002621800    0.0004492300
  -0.0001003900    0.0002610900    0.0002610900
   0.0247812700    0.0127995100    0.0127995100
  -0.0001003900   -0.0002610900   -0.0002610900
   0.0247812700   -0.0127995100   -0.0127995100
   0.0001395100   -0.0000747500   -0.0001276300
  -0.0004154100   -0.0002621800   -0.0004492300
   0.0001395100   -0.0001276300   -0.0000747500
  -0.0004154100   -0.0004492300   -0.0002621800
  -0.0001543100   -0.0002435100   -0.0002435100
   0.0020849300   -0.0001309700   -0.0001309700
  -0.0004122100   -0.0002592500    0.0004533000
   0.0001443000   -0.0000786400    0.0001339300
   0.0245090600   -0.0123997400    0.0123997400
  -0.0001008600   -0.0002606200    0.0002606200
   0.0020763200   -0.0001305300    0.0001305300
  -0.0001546000   -0.0002426400    0.0002426400
  -0.0004122100   -0.0004533000    0.0002592500
   0.0001443000   -0.0001339300    0.0000786400
  -0.0004122100    0.0004533000   -0.0002592500
   0.0001443000    0.0001339300   -0.0000786400
   0.0020763200    0.0001305300   -0.0001305300
  -0.0001546000    0.0002426400   -0.0002426400
   0.0245090600    0.0123997400   -0.0123997400
  -0.0001008600    0.0002606200   -0.0002606200
  -0.0004122100    0.0002592500   -0.0004533000
   0.0001443000    0.0000786400   -0.0001339300
