64   
1    

1    
  0.0100000000000000   0.0000000000000000   0.0000000000000000
  -0.1795250600    0.0000000000    0.0000000000
   0.0002543100    0.0000000000    0.0000000000
   0.0004887700    0.0000000000    0.0000000000
   0.0001208800    0.0000000000    0.0000000000
   0.0004887700    0.0000000000    0.0000000000
   0.0001208800    0.0000000000    0.0000000000
  -0.0040592700    0.0000000000    0.0000000000
   0.0002888300    0.0000000000    0.0000000000
  -0.0046012900    0.0011184500    0.0011184500
  -0.0000843800    0.0001125000    0.0001125000
  -0.0045955800    0.0011001300   -0.0011001300
  -0.0000813900    0.0001126100   -0.0001126100
  -0.0045955800   -0.0011001300    0.0011001300
  -0.0000813900   -0.0001126100    0.0001126100
  -0.0046012900   -0.0011184500   -0.0011184500
  -0.0000843800   -0.0001125000   -0.0001125000
   0.0025193100   -0.0011032400    0.0025390200
   0.0025358300   -0.0011155200   -0.0025513100
   0.0004177300   -0.0001125200   -0.0006239100
   0.0004185500   -0.0001127300    0.0006224400
   0.0025193100    0.0011032400   -0.0025390200
   0.0025358300    0.0011155200    0.0025513100
   0.0004177300    0.0001125200    0.0006239100
   0.0004185500    0.0001127300   -0.0006224400
   0.0025193100    0.0025390200   -0.0011032400
   0.0025358300   -0.0025513100   -0.0011155200
   0.0025193100   -0.0025390200    0.0011032400
   0.0025358300    0.0025513100    0.0011155200
   0.0004177300   -0.0006239100   -0.0001125200
   0.0004185500    0.0006224400   -0.0001127300
   0.0004177300    0.0006239100    0.0001125200
   0.0004185500   -0.0006224400    0.0001127300
  -0.0001883000    0.0002639100    0.0002639100
   0.0020537500    0.0003588100    0.0003588100
   0.0003128500    0.0003555700    0.0003853700
  -0.0005884500    0.0003649100    0.0003873600
   0.0003128500    0.0003853700    0.0003555700
  -0.0005884500    0.0003873600    0.0003649100
  -0.0000569500    0.0003858400    0.0003858400
   0.0431422900    0.0378545900    0.0378545900
  -0.0000569500   -0.0003858400   -0.0003858400
   0.0431422900   -0.0378545900   -0.0378545900
   0.0003128500   -0.0003853700   -0.0003555700
  -0.0005884500   -0.0003873600   -0.0003649100
   0.0003128500   -0.0003555700   -0.0003853700
  -0.0005884500   -0.0003649100   -0.0003873600
  -0.0001883000   -0.0002639100   -0.0002639100
   0.0020537500   -0.0003588100   -0.0003588100
  -0.0005817500   -0.0003815300    0.0003682300
   0.0003184200   -0.0003897500    0.0003601200
   0.0428133000   -0.0369775500    0.0369775500
  -0.0000549700   -0.0003831500    0.0003831500
   0.0020470200   -0.0003567800    0.0003567800
  -0.0001875500   -0.0002623100    0.0002623100
  -0.0005817500   -0.0003682300    0.0003815300
   0.0003184200   -0.0003601200    0.0003897500
  -0.0005817500    0.0003682300   -0.0003815300
   0.0003184200    0.0003601200   -0.0003897500
   0.0020470200    0.0003567800   -0.0003567800
  -0.0001875500    0.0002623100   -0.0002623100
   0.0428133000    0.0369775500   -0.0369775500
  -0.0000549700    0.0003831500   -0.0003831500
  -0.0005817500    0.0003815300   -0.0003682300
   0.0003184200    0.0003897500   -0.0003601200
