ITEM: TIMESTEP
0
ITEM: NUMBER OF ATOMS
16
ITEM: BOX BOUNDS xy xz yz pp pp pp
0.0000000000000000e+00 1.5460745078988870e+01 3.8651862697472179e+00
0.0000000000000000e+00 8.9262653332264055e+00 3.8651862697472179e+00
0.0000000000000000e+00 6.3118227477947872e+00 2.2315663333066023e+00
ITEM: ATOMS id type x y z fx fy fz
1 1      6.77407597      3.90524108      2.76142245     -0.13257944     -0.00127046     -0.00089835
2 1     10.62926224      3.90524108      2.76142245      0.01038451     -0.00000119     -0.00000084
3 1      8.69666911      7.25259058      2.76142245     -0.00163361      0.00694088     -0.00343449
4 1     12.56185538      7.25259058      2.76142245     -0.00163582     -0.00693815      0.00341816
5 1      8.69666911      5.02102425      5.91733383     -0.00163361     -0.00092444      0.00768875
6 1     12.56185538      5.02102425      5.91733383     -0.00163582      0.00090995     -0.00768074
7 1     10.62926224      8.36837375      5.91733383     -0.00004620     -0.00000110     -0.00000078
8 1     14.49444851      8.36837375      5.91733383      0.00163726      0.00000180      0.00000127
9 1      0.96629657      0.55789158      0.39448892     -0.00093869      0.00112576      0.00079603
10 1      4.83148284      0.55789158      0.39448892     -0.00094469     -0.00112730     -0.00079712
11 1      2.89888970      3.90524108      0.39448892     -0.00289240      0.00000159     -0.00001319
12 1      6.76407597      3.90524108      0.39448892      0.01141500      0.00003036      0.00017942
13 1      2.89888970      1.67367475      3.55040030     -0.00289240     -0.00001191      0.00000590
14 1      6.76407597      1.67367475      3.55040030      0.01141500      0.00017928     -0.00003118
15 1      4.83148284      5.02102425      3.55040030      0.05531192     -0.02519700     -0.01781697
16 1      8.69666911      5.02102425      3.55040030      0.05666898      0.02628192      0.01858412
