  MPI-parallelism will be employed.
------------------------------------------------------------
          Invoking FHI-aims ...

          When using FHI-aims, please cite the following reference:

          Volker Blum, Ralf Gehrke, Felix Hanke, Paula Havu,
          Ville Havu, Xinguo Ren, Karsten Reuter, and Matthias Scheffler,
          'Ab Initio Molecular Simulations with Numeric Atom-Centered Orbitals',
          Computer Physics Communications 180, 2175-2196 (2009)

          For any questions about FHI-aims, please visit the aimsclub website
          with its forums and wiki. Contributions to both the forums and the
          wiki are warmly encouraged - they are for you, and everyone is welcome there.

------------------------------------------------------------



  Date     :  20200128, Time     :  143010.627
  Time zero on CPU 1             :   0.704660000000000E-01  s.
  Internal wall clock time zero  :           349453810.627  s.

  FHI-aims created a unique identifier for this run for later identification
  aims_uuid : BD5B2C1E-9E14-4EBA-AA40-B896805FC649

  Build configuration of the current instance of FHI-aims
  -------------------------------------------------------
  FHI-aims version      : 191023
  Commit number         : 406e2a38d
  CMake host system     : Linux-4.12.14-95.32-default
  CMake version         : 3.5.2
  Fortran compiler      : /mpcdf/soft/SLE_12_SP4/packages/x86_64/intel_parallel_studio/2018.4/compilers_and_libraries_2018.5.274/linux/mpi/bin64/mpiifort (Intel) version 18.0.5.20180823
  Fortran compiler flags: -O3 -ip -fp-model precise
  C compiler            : /mpcdf/soft/SLE_12_SP4/packages/haswell/intel/18.0.5/bin/icc (Intel) version 18.0.5.20180823
  C compiler flags      : -O3
  C++ compiler          : /mpcdf/soft/SLE_12_SP4/packages/haswell/intel/18.0.5/bin/icpc (Intel) version 18.0.5.20180823
  C++ compiler flags    : -O3
  Architecture          : AMD64_AVX
  Using MPI
  Using Scalapack
  Using C files
  Using LibXC
  Using SPGlib
  Using i-PI
  Linking against: /mpcdf/soft/SLE_12_SP4/packages/x86_64/intel_parallel_studio/2018.4/mkl/lib/intel64/libmkl_intel_lp64.so
                   /mpcdf/soft/SLE_12_SP4/packages/x86_64/intel_parallel_studio/2018.4/mkl/lib/intel64/libmkl_sequential.so
                   /mpcdf/soft/SLE_12_SP4/packages/x86_64/intel_parallel_studio/2018.4/mkl/lib/intel64/libmkl_core.so
                   /mpcdf/soft/SLE_12_SP4/packages/x86_64/intel_parallel_studio/2018.4/mkl/lib/intel64/libmkl_blacs_intelmpi_lp64.so
                   /mpcdf/soft/SLE_12_SP4/packages/x86_64/intel_parallel_studio/2018.4/mkl/lib/intel64/libmkl_scalapack_lp64.so

  Using       32 parallel tasks.
  Task        0 on host dra0027 reporting.
  Task        1 on host dra0027 reporting.
  Task        2 on host dra0027 reporting.
  Task        3 on host dra0027 reporting.
  Task        4 on host dra0027 reporting.
  Task        5 on host dra0027 reporting.
  Task        6 on host dra0027 reporting.
  Task        7 on host dra0027 reporting.
  Task        8 on host dra0027 reporting.
  Task        9 on host dra0027 reporting.
  Task       10 on host dra0027 reporting.
  Task       11 on host dra0027 reporting.
  Task       12 on host dra0027 reporting.
  Task       13 on host dra0027 reporting.
  Task       14 on host dra0027 reporting.
  Task       15 on host dra0027 reporting.
  Task       16 on host dra0027 reporting.
  Task       17 on host dra0027 reporting.
  Task       18 on host dra0027 reporting.
  Task       19 on host dra0027 reporting.
  Task       20 on host dra0027 reporting.
  Task       21 on host dra0027 reporting.
  Task       22 on host dra0027 reporting.
  Task       23 on host dra0027 reporting.
  Task       24 on host dra0027 reporting.
  Task       25 on host dra0027 reporting.
  Task       26 on host dra0027 reporting.
  Task       27 on host dra0027 reporting.
  Task       28 on host dra0027 reporting.
  Task       29 on host dra0027 reporting.
  Task       30 on host dra0027 reporting.
  Task       31 on host dra0027 reporting.

  Performing system and environment tests:
  | Environment variable OMP_NUM_THREADS correctly set to 1.
  | Maximum stacksize for task 0: unlimited
  | Maximum stacksize for task 1: unlimited
  | Maximum stacksize for task 2: unlimited
  | Maximum stacksize for task 3: unlimited
  | Maximum stacksize for task 4: unlimited
  | Maximum stacksize for task 5: unlimited
  | Maximum stacksize for task 6: unlimited
  | Maximum stacksize for task 7: unlimited
  | Maximum stacksize for task 8: unlimited
  | Maximum stacksize for task 9: unlimited
  | Maximum stacksize for task 10: unlimited
  | Maximum stacksize for task 11: unlimited
  | Maximum stacksize for task 12: unlimited
  | Maximum stacksize for task 13: unlimited
  | Maximum stacksize for task 14: unlimited
  | Maximum stacksize for task 15: unlimited
  | Maximum stacksize for task 16: unlimited
  | Maximum stacksize for task 17: unlimited
  | Maximum stacksize for task 18: unlimited
  | Maximum stacksize for task 19: unlimited
  | Maximum stacksize for task 20: unlimited
  | Maximum stacksize for task 21: unlimited
  | Maximum stacksize for task 22: unlimited
  | Maximum stacksize for task 23: unlimited
  | Maximum stacksize for task 24: unlimited
  | Maximum stacksize for task 25: unlimited
  | Maximum stacksize for task 26: unlimited
  | Maximum stacksize for task 27: unlimited
  | Maximum stacksize for task 28: unlimited
  | Maximum stacksize for task 29: unlimited
  | Maximum stacksize for task 30: unlimited
  | Maximum stacksize for task 31: unlimited
  | Current stacksize for task 0: unlimited
  | Current stacksize for task 1: unlimited
  | Current stacksize for task 2: unlimited
  | Current stacksize for task 3: unlimited
  | Current stacksize for task 4: unlimited
  | Current stacksize for task 5: unlimited
  | Current stacksize for task 6: unlimited
  | Current stacksize for task 7: unlimited
  | Current stacksize for task 8: unlimited
  | Current stacksize for task 9: unlimited
  | Current stacksize for task 10: unlimited
  | Current stacksize for task 11: unlimited
  | Current stacksize for task 12: unlimited
  | Current stacksize for task 13: unlimited
  | Current stacksize for task 14: unlimited
  | Current stacksize for task 15: unlimited
  | Current stacksize for task 16: unlimited
  | Current stacksize for task 17: unlimited
  | Current stacksize for task 18: unlimited
  | Current stacksize for task 19: unlimited
  | Current stacksize for task 20: unlimited
  | Current stacksize for task 21: unlimited
  | Current stacksize for task 22: unlimited
  | Current stacksize for task 23: unlimited
  | Current stacksize for task 24: unlimited
  | Current stacksize for task 25: unlimited
  | Current stacksize for task 26: unlimited
  | Current stacksize for task 27: unlimited
  | Current stacksize for task 28: unlimited
  | Current stacksize for task 29: unlimited
  | Current stacksize for task 30: unlimited
  | Current stacksize for task 31: unlimited
  | Checking for scalapack...
  | Testing pdtran()...
  | All pdtran() tests passed.

  Obtaining array dimensions for all initial allocations:

  -----------------------------------------------------------------------
  Parsing control.in (first pass over file, find array dimensions only).
  The contents of control.in will be repeated verbatim below
  unless switched off by setting 'verbatim_writeout .false.' .
  in the first line of control.in .
  -----------------------------------------------------------------------

  xc pw-lda
  k_grid 2 2 2
  compute_forces .true.


  ################################################################################
  #
  #  FHI-aims code project
  #  VB, Fritz-Haber Institut, 2009
  #
  #  Suggested "light" defaults for C atom (to be pasted into control.in file)
  #  Be sure to double-check any results obtained with these settings for post-processing,
  #  e.g., with the "tight" defaults and larger basis sets.
  #
  ################################################################################
    species        C
  #     global species definitions
      nucleus             6
      mass                12.0107
  #
      l_hartree           4
  #
      cut_pot             3.5  1.5  1.0
      basis_dep_cutoff    1e-4
  #
      radial_base         34 5.0
      radial_multiplier   1
      angular_grids specified
        division   0.3326   50
        division   0.5710  110
        division   0.7727  194
        division   0.8772  302
  #      division   0.9334  434
  #      division   0.9625  590
  #      division   0.9924  770
  #      division   1.0230  974
  #      division   1.4589 1202
  #     outer_grid  974
       outer_grid 302
  ################################################################################
  #
  #  Definition of "minimal" basis
  #
  ################################################################################
  #     valence basis states
      valence      2  s   2.
      valence      2  p   2.
  #     ion occupancy
      ion_occ      2  s   1.
      ion_occ      2  p   1.
  ################################################################################
  #
  #  Suggested additional basis functions. For production calculations,
  #  uncomment them one after another (the most important basis functions are
  #  listed first).
  #
  #  Constructed for dimers: 1.0 A, 1.25 A, 1.5 A, 2.0 A, 3.0 A
  #
  ################################################################################
  #  "First tier" - improvements: -1214.57 meV to -155.61 meV
       hydro 2 p 1.7
       hydro 3 d 6
       hydro 2 s 4.9
  #  "Second tier" - improvements: -67.75 meV to -5.23 meV
  #     hydro 4 f 9.8
  #     hydro 3 p 5.2
  #     hydro 3 s 4.3
  #     hydro 5 g 14.4
  #     hydro 3 d 6.2
  #  "Third tier" - improvements: -2.43 meV to -0.60 meV
  #     hydro 2 p 5.6
  #     hydro 2 s 1.4
  #     hydro 3 d 4.9
  #     hydro 4 f 11.2
  #  "Fourth tier" - improvements: -0.39 meV to -0.18 meV
  #     hydro 2 p 2.1
  #     hydro 5 g 16.4
  #     hydro 4 d 13.2
  #     hydro 3 s 13.6
  #     hydro 4 f 17.6
  #  Further basis functions - improvements: -0.08 meV and below
  #     hydro 3 s 2
  #     hydro 3 p 6
  #     hydro 4 d 20

  -----------------------------------------------------------------------
  Completed first pass over input file control.in .
  -----------------------------------------------------------------------


  -----------------------------------------------------------------------
  Parsing geometry.in (first pass over file, find array dimensions only).
  The contents of geometry.in will be repeated verbatim below
  unless switched off by setting 'verbatim_writeout .false.' .
  in the first line of geometry.in .
  -----------------------------------------------------------------------

  # geometry.in for FHI-aims
  # | generated by phonopy.FHIaims.write_aims()
  lattice_vector 7.1235442500000001 0.0000000000000000 0.0000000000000000
  lattice_vector 0.0000000000000000 7.1235442500000001 0.0000000000000000
  lattice_vector 0.0000000000000000 0.0000000000000000 7.1235442500000001
  atom 0.0100000000000000 0.0000000000000000 0.0000000000000000 C
  atom 3.5617721250000001 0.0000000000000000 0.0000000000000000 C
  atom 0.0000000000000000 3.5617721250000001 0.0000000000000000 C
  atom 3.5617721250000001 3.5617721250000001 0.0000000000000000 C
  atom 0.0000000000000000 0.0000000000000000 3.5617721250000001 C
  atom 3.5617721250000001 0.0000000000000000 3.5617721250000001 C
  atom 0.0000000000000000 3.5617721250000001 3.5617721250000001 C
  atom 3.5617721250000001 3.5617721250000001 3.5617721250000001 C
  atom 0.8904430312500000 0.8904430312500000 0.8904430312500000 C
  atom 4.4522151562500003 0.8904430312500000 0.8904430312500000 C
  atom 0.8904430312500000 4.4522151562500003 0.8904430312500000 C
  atom 4.4522151562500003 4.4522151562500003 0.8904430312500000 C
  atom 0.8904430312500000 0.8904430312500000 4.4522151562500003 C
  atom 4.4522151562500003 0.8904430312500000 4.4522151562500003 C
  atom 0.8904430312500000 4.4522151562500003 4.4522151562500003 C
  atom 4.4522151562500003 4.4522151562500003 4.4522151562500003 C
  atom 1.7808860625000000 1.7808860625000000 0.0000000000000000 C
  atom 5.3426581874999997 1.7808860625000000 0.0000000000000000 C
  atom 1.7808860625000000 5.3426581874999997 0.0000000000000000 C
  atom 5.3426581874999997 5.3426581874999997 0.0000000000000000 C
  atom 1.7808860625000000 1.7808860625000000 3.5617721250000001 C
  atom 5.3426581874999997 1.7808860625000000 3.5617721250000001 C
  atom 1.7808860625000000 5.3426581874999997 3.5617721250000001 C
  atom 5.3426581874999997 5.3426581874999997 3.5617721250000001 C
  atom 2.6713290937499998 2.6713290937499998 0.8904430312500000 C
  atom 6.2331012187499999 2.6713290937499998 0.8904430312500000 C
  atom 2.6713290937499998 6.2331012187499999 0.8904430312500000 C
  atom 6.2331012187499999 6.2331012187499999 0.8904430312500000 C
  atom 2.6713290937499998 2.6713290937499998 4.4522151562500003 C
  atom 6.2331012187499999 2.6713290937499998 4.4522151562500003 C
  atom 2.6713290937499998 6.2331012187499999 4.4522151562500003 C
  atom 6.2331012187499999 6.2331012187499999 4.4522151562500003 C
  atom 1.7808860625000000 0.0000000000000000 1.7808860625000000 C
  atom 5.3426581874999997 0.0000000000000000 1.7808860625000000 C
  atom 1.7808860625000000 3.5617721250000001 1.7808860625000000 C
  atom 5.3426581874999997 3.5617721250000001 1.7808860625000000 C
  atom 1.7808860625000000 0.0000000000000000 5.3426581874999997 C
  atom 5.3426581874999997 0.0000000000000000 5.3426581874999997 C
  atom 1.7808860625000000 3.5617721250000001 5.3426581874999997 C
  atom 5.3426581874999997 3.5617721250000001 5.3426581874999997 C
  atom 2.6713290937499998 0.8904430312500000 2.6713290937499998 C
  atom 6.2331012187499999 0.8904430312500000 2.6713290937499998 C
  atom 2.6713290937499998 4.4522151562500003 2.6713290937499998 C
  atom 6.2331012187499999 4.4522151562500003 2.6713290937499998 C
  atom 2.6713290937499998 0.8904430312500000 6.2331012187499999 C
  atom 6.2331012187499999 0.8904430312500000 6.2331012187499999 C
  atom 2.6713290937499998 4.4522151562500003 6.2331012187499999 C
  atom 6.2331012187499999 4.4522151562500003 6.2331012187499999 C
  atom 0.0000000000000000 1.7808860625000000 1.7808860625000000 C
  atom 3.5617721250000001 1.7808860625000000 1.7808860625000000 C
  atom 0.0000000000000000 5.3426581874999997 1.7808860625000000 C
  atom 3.5617721250000001 5.3426581874999997 1.7808860625000000 C
  atom 0.0000000000000000 1.7808860625000000 5.3426581874999997 C
  atom 3.5617721250000001 1.7808860625000000 5.3426581874999997 C
  atom 0.0000000000000000 5.3426581874999997 5.3426581874999997 C
  atom 3.5617721250000001 5.3426581874999997 5.3426581874999997 C
  atom 0.8904430312500000 2.6713290937499998 2.6713290937499998 C
  atom 4.4522151562500003 2.6713290937499998 2.6713290937499998 C
  atom 0.8904430312500000 6.2331012187499999 2.6713290937499998 C
  atom 4.4522151562500003 6.2331012187499999 2.6713290937499998 C
  atom 0.8904430312500000 2.6713290937499998 6.2331012187499999 C
  atom 4.4522151562500003 2.6713290937499998 6.2331012187499999 C
  atom 0.8904430312500000 6.2331012187499999 6.2331012187499999 C
  atom 4.4522151562500003 6.2331012187499999 6.2331012187499999 C

  -----------------------------------------------------------------------
  Completed first pass over input file geometry.in .
  -----------------------------------------------------------------------


  Basic array size parameters:
  | Number of species                 :        1
  | Number of atoms                   :       64
  | Number of lattice vectors         :        3
  | Max. basis fn. angular momentum   :        2
  | Max. atomic/ionic basis occupied n:        2
  | Max. number of basis fn. types    :        2
  | Max. radial fns per species/type  :        3
  | Max. logarithmic grid size        :     1277
  | Max. radial integration grid size :       34
  | Max. angular integration grid size:      302
  | Max. angular grid division number :        8
  | Radial grid for Hartree potential :     1277
  | Number of spin channels           :        1

------------------------------------------------------------
          Reading file control.in.
------------------------------------------------------------
  XC: Using Perdew-Wang parametrisation of Ceperley-Alder LDA.
  Found k-point grid:         2         2         2
  Forces will be computed.

  Reading configuration options for species C                   .
  | Found nuclear charge :   6.0000
  | Found atomic mass :    12.0107000000000      amu
  | Found l_max for Hartree potential  :   4
  | Found cutoff potl. onset [A], width [A], scale factor :    3.50000    1.50000    1.00000
  | Threshold for basis-dependent cutoff potential is   0.100000E-03
  | Found data for basic radial integration grid :    34 points, outermost radius =    5.000 A
  | Found multiplier for basic radial grid :   1
  | Found angular grid specification: user-specified.
  | Specified grid contains     5 separate shells.
  | Check grid settings after all constraints further below.
  | Found free-atom valence shell :  2 s   2.000
  | Found free-atom valence shell :  2 p   2.000
  | No ionic wave fns used. Skipping ion_occ.
  | No ionic wave fns used. Skipping ion_occ.
  | Found hydrogenic basis function :  2 p   1.700
  | Found hydrogenic basis function :  3 d   6.000
  | Found hydrogenic basis function :  2 s   4.900
  Species C                   : Missing cutoff potential type.
  Defaulting to exp(1/x)/(1-x)^2 type cutoff potential.
  Species C : No 'logarithmic' tag. Using default grid for free atom:
  | Default logarithmic grid data [bohr] : 0.1000E-03 0.1000E+03 0.1012E+01
  Species C : On-site basis accuracy parameter (for Gram-Schmidt orthonormalisation) not specified.
  Using default value basis_acc =  0.1000000E-03.
  Species C                   : Using default innermost maximum threshold i_radial=  2 for radial functions.
  Species C                   : Default cutoff onset for free atom density etc. : 0.35000000E+01 AA.
  Species C                   : Basic radial grid will be enhanced according to radial_multiplier =   1, to contain    34 grid points.

  Finished reading input file 'control.in'. Consistency checks are next.

  MPI_IN_PLACE appears to work with this MPI implementation.
  | Keeping use_mpi_in_place .true. (see manual).
  Target number of points in a grid batch is not set. Defaulting to  100
  Method for grid partitioning is not set. Defaulting to parallel hash+maxmin partitioning.
  Batch size limit is not set. Defaulting to    200
  By default, will store active basis functions for each batch.
  If in need of memory, prune_basis_once .false. can be used to disable this option.
  communication_type for Hartree potential was not specified.
  Defaulting to calc_hartree .
  Defaulting to Pulay charge density mixer.
  Pulay mixer: Number of relevant iterations not set.
  Defaulting to    8 iterations.
  Pulay mixer: Number of initial linear mixing iterations not set.
  Defaulting to    0 iterations.
  Work space size for distributed Hartree potential not set.
  Defaulting to   0.200000E+03 MB.
  Mixing parameter for charge density mixing has not been set.
  Using default: charge_mix_param =     0.0500.
  The mixing parameter will be adjusted in iteration number     2 of the first full s.c.f. cycle only.
  Algorithm-dependent basis array size parameters:
  | n_max_pulay                         :        8
 * Notice: The s.c.f. convergence criterion sc_accuracy_rho was not provided.
 * We used to stop in this case, and ask the user to provide reasonable
 * scf convergence criteria. However, this led some users to employ criteria
 * that led to extremely long run times, e.g., for simple relaxation.
 * We now preset a default value for sc_accuracy_rho if it is not set.
 * You may still wish to check if this setting is too tight or too loose for your needs.
 * Based on n_atoms, FHI-aims chose sc_accuracy_rho =  0.326599E-05 .
  Maximum number of self-consistency iterations not provided.
  Presetting  1000 iterations.
  Presetting      1001 iterations before the initial mixing cycle
  is restarted anyway using the sc_init_iter criterion / keyword.
  Presetting a factor      1.000 between actual scf density residual
  and density convergence criterion sc_accuracy_rho below which sc_init_iter
  takes no effect.
 * No s.c.f. convergence criteria (sc_accuracy_*) were provided in control.in.
 * The run will proceed with a reasonable default guess, but please check whether.
 * the s.c.f. cycles seem to take too much or too little time.
  Geometry relaxation not requested: no relaxation will be performed.
  Force calculation: scf convergence accuracy of forces not set.
  Defaulting to 'sc_accuracy_forces not_checked'.
  Handling of forces: Unphysical translation and rotation will be removed from forces.
  No accuracy limit for integral partition fn. given. Defaulting to  0.1000E-14.
  No threshold value for u(r) in integrations given. Defaulting to  0.1000E-05.
  No occupation type (smearing scheme) given. Defaulting to Gaussian broadening, width =  0.1000E-01 eV.
  The width will be adjusted in iteration number     2 of the first full s.c.f. cycle only.
  S.C.F. convergence parameters will be adjusted in iteration number     2 of the first full s.c.f. cycle only.
  No accuracy for occupation numbers given. Defaulting to  0.1000E-12.
  No threshold value for occupation numbers given. Defaulting to  0.0000E+00.
  No accuracy for fermi level given. Defaulting to  0.1000E-19.
  Maximum # of iterations to find E_F not set. Defaulting to  200.
  Preferred method for the eigenvalue solver ('KS_method') not specified in 'control.in'.
  Calling BLACS routine to test compilation state
  Since ScaLAPACK support is enabled, defaulting to ELPA (via ELSI).
  Will not use alltoall communication since running on < 1024 CPUs.
  Threshold for basis singularities not set.
  Default threshold for basis singularities:  0.1000E-04
  partition_type (choice of integration weights) for integrals was not specified.
  | Using a version of the partition function of Stratmann and coworkers ('stratmann_sparse').
  | At each grid point, the set of atoms used to build the partition table is smoothly restricted to
  | only those atoms whose free-atom density would be non-zero at that grid point.
  Partitioning for Hartree potential was not defined. Using partition_type for integrals.
  | Adjusted default value of keyword multip_moments_threshold to:       0.10000000E-11
  | This value may affect high angular momentum components of the Hartree potential in periodic systems.
  Spin handling was not defined in control.in. Defaulting to unpolarized case.
  Angular momentum expansion for Kerker preconditioner not set explicitly.
  | Using default value of   0
  No explicit requirement for turning off preconditioner.
  | By default, it will be turned off when the charge convergence reaches
  | sc_accuracy_rho  =   0.326599E-05
  No special mixing parameter while Kerker preconditioner is on.
  Using default: charge_mix_param =     0.0500.
  No q(lm)/r^(l+1) cutoff set for long-range Hartree potential.
  | Using default value of  0.100000E-09 .
  | Verify using the multipole_threshold keyword.
  Defaulting to new monopole extrapolation.
  Density update method: automatic selection selected.
  Using density matrix based charge density update.
  Using density matrix based charge density update.
  Using packed matrix style: index .
  Defaulting to use time-reversal symmetry for k-point grid.
  Charge integration errors on the 3D integration grid will be compensated
  by explicit normalization and distribution of residual charges.
  Use the "compensate_multipole_errors" flag to change this behaviour.
------------------------------------------------------------


------------------------------------------------------------
          Reading geometry description geometry.in.
------------------------------------------------------------
 * Warning! You did not set the 'relativistic' flag in input file 'control.in'.
 * Since you are not attempting to treat any elements beyond Ca(Z=20), FHI-aims
 * will default to 'relativistic none'.
 * You must ensure that this is really what you want!!
 * For example, DO NOT compute total-energy differences between results from
 * different settings of the 'relativistic' flag.
  Input structure read successfully.
  The structure contains       64 atoms,  and a total of        384.000 electrons.

  Input geometry:
  | Unit cell:
  |        7.12354425        0.00000000        0.00000000
  |        0.00000000        7.12354425        0.00000000
  |        0.00000000        0.00000000        7.12354425
  | Atomic structure:
  |       Atom                x [A]            y [A]            z [A]
  |    1: Species C             0.01000000        0.00000000        0.00000000
  |    2: Species C             3.56177213        0.00000000        0.00000000
  |    3: Species C             0.00000000        3.56177213        0.00000000
  |    4: Species C             3.56177213        3.56177213        0.00000000
  |    5: Species C             0.00000000        0.00000000        3.56177213
  |    6: Species C             3.56177213        0.00000000        3.56177213
  |    7: Species C             0.00000000        3.56177213        3.56177213
  |    8: Species C             3.56177213        3.56177213        3.56177213
  |    9: Species C             0.89044303        0.89044303        0.89044303
  |   10: Species C             4.45221516        0.89044303        0.89044303
  |   11: Species C             0.89044303        4.45221516        0.89044303
  |   12: Species C             4.45221516        4.45221516        0.89044303
  |   13: Species C             0.89044303        0.89044303        4.45221516
  |   14: Species C             4.45221516        0.89044303        4.45221516
  |   15: Species C             0.89044303        4.45221516        4.45221516
  |   16: Species C             4.45221516        4.45221516        4.45221516
  |   17: Species C             1.78088606        1.78088606        0.00000000
  |   18: Species C             5.34265819        1.78088606        0.00000000
  |   19: Species C             1.78088606        5.34265819        0.00000000
  |   20: Species C             5.34265819        5.34265819        0.00000000
  |   21: Species C             1.78088606        1.78088606        3.56177213
  |   22: Species C             5.34265819        1.78088606        3.56177213
  |   23: Species C             1.78088606        5.34265819        3.56177213
  |   24: Species C             5.34265819        5.34265819        3.56177213
  |   25: Species C             2.67132909        2.67132909        0.89044303
  |   26: Species C             6.23310122        2.67132909        0.89044303
  |   27: Species C             2.67132909        6.23310122        0.89044303
  |   28: Species C             6.23310122        6.23310122        0.89044303
  |   29: Species C             2.67132909        2.67132909        4.45221516
  |   30: Species C             6.23310122        2.67132909        4.45221516
  |   31: Species C             2.67132909        6.23310122        4.45221516
  |   32: Species C             6.23310122        6.23310122        4.45221516
  |   33: Species C             1.78088606        0.00000000        1.78088606
  |   34: Species C             5.34265819        0.00000000        1.78088606
  |   35: Species C             1.78088606        3.56177213        1.78088606
  |   36: Species C             5.34265819        3.56177213        1.78088606
  |   37: Species C             1.78088606        0.00000000        5.34265819
  |   38: Species C             5.34265819        0.00000000        5.34265819
  |   39: Species C             1.78088606        3.56177213        5.34265819
  |   40: Species C             5.34265819        3.56177213        5.34265819
  |   41: Species C             2.67132909        0.89044303        2.67132909
  |   42: Species C             6.23310122        0.89044303        2.67132909
  |   43: Species C             2.67132909        4.45221516        2.67132909
  |   44: Species C             6.23310122        4.45221516        2.67132909
  |   45: Species C             2.67132909        0.89044303        6.23310122
  |   46: Species C             6.23310122        0.89044303        6.23310122
  |   47: Species C             2.67132909        4.45221516        6.23310122
  |   48: Species C             6.23310122        4.45221516        6.23310122
  |   49: Species C             0.00000000        1.78088606        1.78088606
  |   50: Species C             3.56177213        1.78088606        1.78088606
  |   51: Species C             0.00000000        5.34265819        1.78088606
  |   52: Species C             3.56177213        5.34265819        1.78088606
  |   53: Species C             0.00000000        1.78088606        5.34265819
  |   54: Species C             3.56177213        1.78088606        5.34265819
  |   55: Species C             0.00000000        5.34265819        5.34265819
  |   56: Species C             3.56177213        5.34265819        5.34265819
  |   57: Species C             0.89044303        2.67132909        2.67132909
  |   58: Species C             4.45221516        2.67132909        2.67132909
  |   59: Species C             0.89044303        6.23310122        2.67132909
  |   60: Species C             4.45221516        6.23310122        2.67132909
  |   61: Species C             0.89044303        2.67132909        6.23310122
  |   62: Species C             4.45221516        2.67132909        6.23310122
  |   63: Species C             0.89044303        6.23310122        6.23310122
  |   64: Species C             4.45221516        6.23310122        6.23310122

  Lattice parameters for 3D lattice (in Angstroms) :     7.123544    7.123544    7.123544
  Angle(s) between unit vectors (in degrees)       :    90.000000   90.000000   90.000000

  | The smallest distance between any two atoms is         1.53654076 AA.
  | The first atom of this pair is atom number                      1 .
  | The second atom of this pair is atom number                     9 .
  | Wigner-Seitz cell of the first atom image           0     0     0 .
  | (The Wigner-Seitz cell of the second atom is 0 0 0  by definition.)

  Symmetry information by spglib:
  | Precision set to  0.1E-04
  | Number of Operations  : 4
  | Space group           : 35
  | International         : Cmm2
  | Schoenflies           : C2v^11

  Quantities derived from the lattice vectors:
  | Reciprocal lattice vector 1:  0.882031  0.000000  0.000000
  | Reciprocal lattice vector 2:  0.000000  0.882031  0.000000
  | Reciprocal lattice vector 3:  0.000000  0.000000  0.882031
  | Unit cell volume                               :   0.361483E+03  A^3

  Range separation radius for Ewald summation (hartree_convergence_parameter):      2.50000000 bohr.

  Fractional coordinates:
                         L1                L2                L3
       atom_frac         0.00140380        0.00000000        0.00000000  C
       atom_frac         0.50000000        0.00000000        0.00000000  C
       atom_frac         0.00000000        0.50000000        0.00000000  C
       atom_frac         0.50000000        0.50000000        0.00000000  C
       atom_frac         0.00000000        0.00000000        0.50000000  C
       atom_frac         0.50000000        0.00000000        0.50000000  C
       atom_frac         0.00000000        0.50000000        0.50000000  C
       atom_frac         0.50000000        0.50000000        0.50000000  C
       atom_frac         0.12500000        0.12500000        0.12500000  C
       atom_frac         0.62500000        0.12500000        0.12500000  C
       atom_frac         0.12500000        0.62500000        0.12500000  C
       atom_frac         0.62500000        0.62500000        0.12500000  C
       atom_frac         0.12500000        0.12500000        0.62500000  C
       atom_frac         0.62500000        0.12500000        0.62500000  C
       atom_frac         0.12500000        0.62500000        0.62500000  C
       atom_frac         0.62500000        0.62500000        0.62500000  C
       atom_frac         0.25000000        0.25000000        0.00000000  C
       atom_frac         0.75000000        0.25000000        0.00000000  C
       atom_frac         0.25000000        0.75000000        0.00000000  C
       atom_frac         0.75000000        0.75000000        0.00000000  C
       atom_frac         0.25000000        0.25000000        0.50000000  C
       atom_frac         0.75000000        0.25000000        0.50000000  C
       atom_frac         0.25000000        0.75000000        0.50000000  C
       atom_frac         0.75000000        0.75000000        0.50000000  C
       atom_frac         0.37500000        0.37500000        0.12500000  C
       atom_frac         0.87500000        0.37500000        0.12500000  C
       atom_frac         0.37500000        0.87500000        0.12500000  C
       atom_frac         0.87500000        0.87500000        0.12500000  C
       atom_frac         0.37500000        0.37500000        0.62500000  C
       atom_frac         0.87500000        0.37500000        0.62500000  C
       atom_frac         0.37500000        0.87500000        0.62500000  C
       atom_frac         0.87500000        0.87500000        0.62500000  C
       atom_frac         0.25000000        0.00000000        0.25000000  C
       atom_frac         0.75000000        0.00000000        0.25000000  C
       atom_frac         0.25000000        0.50000000        0.25000000  C
       atom_frac         0.75000000        0.50000000        0.25000000  C
       atom_frac         0.25000000        0.00000000        0.75000000  C
       atom_frac         0.75000000        0.00000000        0.75000000  C
       atom_frac         0.25000000        0.50000000        0.75000000  C
       atom_frac         0.75000000        0.50000000        0.75000000  C
       atom_frac         0.37500000        0.12500000        0.37500000  C
       atom_frac         0.87500000        0.12500000        0.37500000  C
       atom_frac         0.37500000        0.62500000        0.37500000  C
       atom_frac         0.87500000        0.62500000        0.37500000  C
       atom_frac         0.37500000        0.12500000        0.87500000  C
       atom_frac         0.87500000        0.12500000        0.87500000  C
       atom_frac         0.37500000        0.62500000        0.87500000  C
       atom_frac         0.87500000        0.62500000        0.87500000  C
       atom_frac         0.00000000        0.25000000        0.25000000  C
       atom_frac         0.50000000        0.25000000        0.25000000  C
       atom_frac         0.00000000        0.75000000        0.25000000  C
       atom_frac         0.50000000        0.75000000        0.25000000  C
       atom_frac         0.00000000        0.25000000        0.75000000  C
       atom_frac         0.50000000        0.25000000        0.75000000  C
       atom_frac         0.00000000        0.75000000        0.75000000  C
       atom_frac         0.50000000        0.75000000        0.75000000  C
       atom_frac         0.12500000        0.37500000        0.37500000  C
       atom_frac         0.62500000        0.37500000        0.37500000  C
       atom_frac         0.12500000        0.87500000        0.37500000  C
       atom_frac         0.62500000        0.87500000        0.37500000  C
       atom_frac         0.12500000        0.37500000        0.87500000  C
       atom_frac         0.62500000        0.37500000        0.87500000  C
       atom_frac         0.12500000        0.87500000        0.87500000  C
       atom_frac         0.62500000        0.87500000        0.87500000  C

  Number of empty states per atom not set in control.in - providing a guess from actual geometry.
  | Total number of empty states used during s.c.f. cycle:      192
  If you use a very high smearing, use empty_states (per atom!) in control.in to increase this value.

  Structure-dependent array size parameters:
  | Maximum number of distinct radial functions  :        6
  | Maximum number of basis functions            :      896
  | Number of Kohn-Sham states (occupied + empty):      384
------------------------------------------------------------

------------------------------------------------------------
          Preparing all fixed parts of the calculation.
------------------------------------------------------------
  Determining machine precision:
    2.225073858507201E-308
  Setting up grids for atomic and cluster calculations.

  Creating wave function, potential, and density for free atoms.

  Species: C

  List of occupied orbitals and eigenvalues:
    n    l              occ      energy [Ha]    energy [eV]
    1    0           2.0000        -9.944615      -270.6068
    2    0           2.0000        -0.498807       -13.5732
    2    1           2.0000        -0.196968        -5.3598

  Creating fixed part of basis set: Ionic, confined, hydrogenic.

  C                    hydrogenic:

  List of hydrogenic basis orbitals:
    n    l      effective z      eigenvalue [eV]  inner max. [A]     outer max. [A]     outer radius [A]
    2    1         1.700000        -9.7616           1.230570           1.230570           4.607917
    3    2         6.000000       -54.4224           0.792453           0.792453           3.883070
    2    0         4.900000       -81.6679           0.082559           0.562749           3.078220


  Adding cutoff potential to free-atom effective potential.
  Creating atomic-like basis functions for current effective potential.

  Species C                   :

  List of atomic basis orbitals and eigenvalues:
    n    l      energy [Ha]    energy [eV]    outer radius [A]
    1    0        -9.944615      -270.6068       1.934409
    2    0        -0.498807       -13.5732       4.496620
    2    1        -0.196968        -5.3598       4.551928

  Assembling full basis from fixed parts.
  | Species C :   atomic orbital   1 s accepted.
  | Species C :    hydro orbital   2 s accepted.
  | Species C :   atomic orbital   2 s accepted.
  | Species C :   atomic orbital   2 p accepted.
  | Species C :    hydro orbital   2 p accepted.
  | Species C :    hydro orbital   3 d accepted.

  Basis size parameters after reduction:
  | Total number of radial functions:        6
  | Total number of basis functions :      896

  Per-task memory consumption for arrays in subroutine allocate_ext:
  |           1.491428MB.
  Testing on-site integration grid accuracy.
  |  Species  Function  <phi|h_atom|phi> (log., in eV)  <phi|h_atom|phi> (rad., in eV)
           1        1               -270.6067544938               -270.6067222788
           1        2                -10.5634280949                -10.5635685736
           1        3                 16.2089822398                 16.2052121796
           1        4                 -5.3613872565                 -5.3627872378
           1        5                  8.5292058327                  8.5051734780
           1        6                 27.4884461005                 27.4884542459

  Preparing densities etc. for the partition functions (integrals / Hartree potential).

  Preparations completed.
  max(cpu_time)          :      0.100 s.
  Wall clock time (cpu1) :      0.444 s.
------------------------------------------------------------

------------------------------------------------------------
          Begin self-consistency loop: Initialization.

          Date     :  20200128, Time     :  143012.359
------------------------------------------------------------

  Initializing index lists of integration centers etc. from given atomic structure:
  Mapping all atomic coordinates to central unit cell.

  Initializing the k-points
  Using symmetry for reducing the k-points
  | k-points reduced from:        8 to        8
  | Number of k-points                             :         8
  The eigenvectors in the calculations are REAL.
  | Number of basis functions in the Hamiltonian integrals :      8170
  | Number of basis functions in a single unit cell        :       896
  | Number of centers in hartree potential         :      3220
  | Number of centers in hartree multipole         :      2476
  | Number of centers in electron density summation:      1834
  | Number of centers in basis integrals           :      1870
  | Number of centers in integrals                 :       721
  | Number of centers in hamiltonian               :      1834
  | Consuming          8 KiB for k_phase.
  | Number of super-cells (origin) [n_cells]                     :         343
  | Number of super-cells (after PM_index) [n_cells]             :          70
  | Number of super-cells in hamiltonian [n_cells_in_hamiltonian]:          70
  | Size of matrix packed + index [n_hamiltonian_matrix_size] :     2838209
  | Estimated reciprocal-space cutoff momentum G_max:         3.81257049 bohr^-1 .
  | Reciprocal lattice points for long-range Hartree potential:    2300
  Using simple linear distribution as default method for k-point parallelism.
  * Using 32 tasks for Scalapack Eigenvalue solver.
  Detailed listing of tasks and assigned k-points:
   Task     0 k-point     1 on dra0027
   Task     1 k-point     1 on dra0027
   Task     2 k-point     1 on dra0027
   Task     3 k-point     1 on dra0027
   Task     4 k-point     2 on dra0027
   Task     5 k-point     2 on dra0027
   Task     6 k-point     2 on dra0027
   Task     7 k-point     2 on dra0027
   Task     8 k-point     3 on dra0027
   Task     9 k-point     3 on dra0027
   Task    10 k-point     3 on dra0027
   Task    11 k-point     3 on dra0027
   Task    12 k-point     4 on dra0027
   Task    13 k-point     4 on dra0027
   Task    14 k-point     4 on dra0027
   Task    15 k-point     4 on dra0027
   Task    16 k-point     5 on dra0027
   Task    17 k-point     5 on dra0027
   Task    18 k-point     5 on dra0027
   Task    19 k-point     5 on dra0027
   Task    20 k-point     6 on dra0027
   Task    21 k-point     6 on dra0027
   Task    22 k-point     6 on dra0027
   Task    23 k-point     6 on dra0027
   Task    24 k-point     7 on dra0027
   Task    25 k-point     7 on dra0027
   Task    26 k-point     7 on dra0027
   Task    27 k-point     7 on dra0027
   Task    28 k-point     8 on dra0027
   Task    29 k-point     8 on dra0027
   Task    30 k-point     8 on dra0027
   Task    31 k-point     8 on dra0027
  K-point:     1 Tasks:     4 split into      2 X      2 BLACS grid
  Calculating block size based on n_basis =          896  max_nprow =            2  max_npcol =            2
  ScaLAPACK block size set to:           16
  Allocating        1.531 MB for ovlp
  Allocating        1.531 MB for ham
  Allocating        1.531 MB for eigenvec
  Required Scalapack workspace - INTEGER:            1  REAL:             1
  Partitioning the integration grid into batches with parallel hashing+maxmin method.
  | Number of batches:     4096
  | Maximal batch size:      94
  | Minimal batch size:      86
  | Average batch size:      89.938
  | Standard deviation of batch sizes:       1.506

  Integration load balanced across    32 MPI tasks.
  Work distribution over tasks is as follows:
  Task     0 has      11560 integration points.
  Task     1 has      11510 integration points.
  Task     2 has      11557 integration points.
  Task     3 has      11558 integration points.
  Task     4 has      11512 integration points.
  Task     5 has      11525 integration points.
  Task     6 has      11528 integration points.
  Task     7 has      11527 integration points.
  Task     8 has      11499 integration points.
  Task     9 has      11509 integration points.
  Task    10 has      11468 integration points.
  Task    11 has      11470 integration points.
  Task    12 has      11510 integration points.
  Task    13 has      11527 integration points.
  Task    14 has      11498 integration points.
  Task    15 has      11512 integration points.
  Task    16 has      11524 integration points.
  Task    17 has      11511 integration points.
  Task    18 has      11496 integration points.
  Task    19 has      11495 integration points.
  Task    20 has      11512 integration points.
  Task    21 has      11524 integration points.
  Task    22 has      11555 integration points.
  Task    23 has      11513 integration points.
  Task    24 has      11557 integration points.
  Task    25 has      11496 integration points.
  Task    26 has      11470 integration points.
  Task    27 has      11468 integration points.
  Task    28 has      11498 integration points.
  Task    29 has      11515 integration points.
  Task    30 has      11512 integration points.
  Task    31 has      11468 integration points.
  Initializing partition tables, free-atom densities, potentials, etc. across the integration grid (initialize_grid_storage).
  | initialize_grid_storage: Actual outermost partition radius vs. multipole_radius_free
  | (-- VB: in principle, multipole_radius_free should be larger, hence this output)
  | Species        1: Confinement radius =              4.999999999999999 AA, multipole_radius_free =              5.019602836301480 AA.
  | Species        1: outer_partition_radius set to              5.019602836301480 AA .
  | The sparse table of interatomic distances needs       9798.26 kbyte instead of     27975.20 kbyte of memory.
  | Net number of integration points:   368384
  | of which are non-zero points    :   276864
  | Numerical average free-atom electrostatic potential    :    -21.71707496 eV
  Renormalizing the initial density to the exact electron count on the 3D integration grid.
  | Initial density: Formal number of electrons (from input files) :     384.0000000000
  | Integrated number of electrons on 3D grid     :     384.3005123084
  | Charge integration error                      :       0.3005123084
  | Normalization factor for density and gradient :       0.9992180278
  Renormalizing the free-atom superposition density to the exact electron count on the 3D integration grid.
  | Formal number of electrons (from input files) :     384.0000000000
  | Integrated number of electrons on 3D grid     :     384.3005123084
  | Charge integration error                      :       0.3005123084
  | Normalization factor for density and gradient :       0.9992180278
  Obtaining max. number of non-zero basis functions in each batch (get_n_compute_maxes).
  | Maximal number of non-zero basis functions:     1086 in task     0
  | Maximal number of non-zero basis functions:     1077 in task     1
  | Maximal number of non-zero basis functions:     1053 in task     2
  | Maximal number of non-zero basis functions:     1060 in task     3
  | Maximal number of non-zero basis functions:     1070 in task     4
  | Maximal number of non-zero basis functions:     1077 in task     5
  | Maximal number of non-zero basis functions:     1077 in task     6
  | Maximal number of non-zero basis functions:     1059 in task     7
  | Maximal number of non-zero basis functions:     1063 in task     8
  | Maximal number of non-zero basis functions:     1086 in task     9
  | Maximal number of non-zero basis functions:     1086 in task    10
  | Maximal number of non-zero basis functions:     1086 in task    11
  | Maximal number of non-zero basis functions:     1081 in task    12
  | Maximal number of non-zero basis functions:     1086 in task    13
  | Maximal number of non-zero basis functions:     1086 in task    14
  | Maximal number of non-zero basis functions:     1086 in task    15
  | Maximal number of non-zero basis functions:     1086 in task    16
  | Maximal number of non-zero basis functions:     1086 in task    17
  | Maximal number of non-zero basis functions:     1086 in task    18
  | Maximal number of non-zero basis functions:     1078 in task    19
  | Maximal number of non-zero basis functions:     1086 in task    20
  | Maximal number of non-zero basis functions:     1086 in task    21
  | Maximal number of non-zero basis functions:     1084 in task    22
  | Maximal number of non-zero basis functions:     1086 in task    23
  | Maximal number of non-zero basis functions:     1078 in task    24
  | Maximal number of non-zero basis functions:     1104 in task    25
  | Maximal number of non-zero basis functions:     1081 in task    26
  | Maximal number of non-zero basis functions:     1063 in task    27
  | Maximal number of non-zero basis functions:     1060 in task    28
  | Maximal number of non-zero basis functions:     1084 in task    29
  | Maximal number of non-zero basis functions:     1086 in task    30
  | Maximal number of non-zero basis functions:     1086 in task    31
  Allocating        2.625 MB for KS_eigenvector
  Integrating Hamiltonian matrix: batch-based integration.
  Time summed over all CPUs for integration: real work       81.973 s, elapsed       83.537 s
  Integrating overlap matrix.
  Time summed over all CPUs for integration: real work       65.625 s, elapsed       66.926 s
  Decreasing sparse matrix size:
  | Tolerance:  0.1000E-12
  Hamiltonian matrix
  | Array has  2561317 nonzero elements out of  2838209 elements
  | Sparsity factor is 0.098
  Overlap matrix
  | Array has  2324042 nonzero elements out of  2838209 elements
  | Sparsity factor is 0.181
  New size of hamiltonian matrix:     2561753
  Deallocating overlap matrix.

  Updating Kohn-Sham eigenvalues and eigenvectors using ELSI and the ELPA eigensolver.
  Singularity check in k-point 1 (analysis for other k-points may follow below):
  Overlap matrix is not singular
  | Lowest and highest eigenvalues :  0.8172E-03,  0.1421E+02
  Finished singularity check of overlap matrix
  | Time :     0.128 s
  Starting ELPA eigensolver
  Finished Cholesky decomposition
  | Time :     0.091 s
  Finished transformation to standard eigenproblem
  | Time :     0.023 s
  Finished solving standard eigenproblem
  | Time :     0.111 s
  Finished back-transformation of eigenvectors
  | Time :     0.011 s

  Obtaining occupation numbers and chemical potential using ELSI.
  | Chemical potential (Fermi level):    -7.40084111 eV
  Writing Kohn-Sham eigenvalues.
  K-point:       1 at    0.000000    0.000000    0.000000 (in units of recip. lattice)

  State    Occupation    Eigenvalue [Ha]    Eigenvalue [eV]
      1       2.00000         -10.045342         -273.34768
      2       2.00000         -10.045328         -273.34727
      3       2.00000         -10.045035         -273.33931
      4       2.00000         -10.044977         -273.33773
      5       2.00000         -10.044977         -273.33772
      6       2.00000         -10.044973         -273.33762
      7       2.00000         -10.044969         -273.33752
      8       2.00000         -10.044967         -273.33745
      9       2.00000         -10.044956         -273.33717
     10       2.00000         -10.044934         -273.33657
     11       2.00000         -10.044929         -273.33643
     12       2.00000         -10.044928         -273.33641
     13       2.00000         -10.044928         -273.33640
     14       2.00000         -10.044928         -273.33639
     15       2.00000         -10.044928         -273.33639
     16       2.00000         -10.044928         -273.33639
     17       2.00000         -10.044928         -273.33639
     18       2.00000         -10.044927         -273.33638
     19       2.00000         -10.044927         -273.33637
     20       2.00000         -10.044927         -273.33636
     21       2.00000         -10.044921         -273.33621
     22       2.00000         -10.044888         -273.33531
     23       2.00000         -10.044888         -273.33530
     24       2.00000         -10.044880         -273.33510
     25       2.00000         -10.044822         -273.33351
     26       2.00000         -10.044821         -273.33347
     27       2.00000         -10.044812         -273.33323
     28       2.00000         -10.044810         -273.33319
     29       2.00000         -10.044810         -273.33319
     30       2.00000         -10.044810         -273.33319
     31       2.00000         -10.044810         -273.33319
     32       2.00000         -10.044810         -273.33319
     33       2.00000         -10.044810         -273.33319
     34       2.00000         -10.044810         -273.33319
     35       2.00000         -10.044810         -273.33319
     36       2.00000         -10.044810         -273.33319
     37       2.00000         -10.044810         -273.33319
     38       2.00000         -10.044810         -273.33319
     39       2.00000         -10.044809         -273.33315
     40       2.00000         -10.044800         -273.33291
     41       2.00000         -10.044740         -273.33129
     42       2.00000         -10.044733         -273.33110
     43       2.00000         -10.044733         -273.33109
     44       2.00000         -10.044699         -273.33017
     45       2.00000         -10.044693         -273.33002
     46       2.00000         -10.044693         -273.33001
     47       2.00000         -10.044693         -273.33000
     48       2.00000         -10.044693         -273.32999
     49       2.00000         -10.044693         -273.32999
     50       2.00000         -10.044692         -273.32999
     51       2.00000         -10.044692         -273.32999
     52       2.00000         -10.044692         -273.32998
     53       2.00000         -10.044692         -273.32997
     54       2.00000         -10.044691         -273.32995
     55       2.00000         -10.044686         -273.32982
     56       2.00000         -10.044664         -273.32921
     57       2.00000         -10.044654         -273.32893
     58       2.00000         -10.044651         -273.32886
     59       2.00000         -10.044647         -273.32876
     60       2.00000         -10.044644         -273.32866
     61       2.00000         -10.044643         -273.32865
     62       2.00000         -10.044585         -273.32708
     63       2.00000         -10.044299         -273.31929
     64       2.00000         -10.044288         -273.31897
     65       2.00000          -1.115448          -30.35288
     66       2.00000          -1.033996          -28.13647
     67       2.00000          -1.033801          -28.13115
     68       2.00000          -1.033775          -28.13045
     69       2.00000          -1.033775          -28.13045
     70       2.00000          -1.033750          -28.12977
     71       2.00000          -1.033561          -28.12463
     72       2.00000          -0.956186          -26.01913
     73       2.00000          -0.955879          -26.01079
     74       2.00000          -0.955769          -26.00780
     75       2.00000          -0.955740          -26.00700
     76       2.00000          -0.955738          -26.00697
     77       2.00000          -0.955736          -26.00691
     78       2.00000          -0.955733          -26.00681
     79       2.00000          -0.955731          -26.00676
     80       2.00000          -0.955730          -26.00672
     81       2.00000          -0.955701          -26.00594
     82       2.00000          -0.955594          -26.00303
     83       2.00000          -0.955293          -25.99485
     84       2.00000          -0.910167          -24.76689
     85       2.00000          -0.910121          -24.76565
     86       2.00000          -0.909984          -24.76194
     87       2.00000          -0.909937          -24.76065
     88       2.00000          -0.822995          -22.39484
     89       2.00000          -0.822894          -22.39208
     90       2.00000          -0.822882          -22.39175
     91       2.00000          -0.822784          -22.38910
     92       2.00000          -0.804469          -21.89071
     93       2.00000          -0.804389          -21.88853
     94       2.00000          -0.804273          -21.88538
     95       2.00000          -0.804272          -21.88537
     96       2.00000          -0.804162          -21.88236
     97       2.00000          -0.804079          -21.88010
     98       2.00000          -0.777846          -21.16626
     99       2.00000          -0.777800          -21.16500
    100       2.00000          -0.777517          -21.15731
    101       2.00000          -0.777494          -21.15669
    102       2.00000          -0.777493          -21.15665
    103       2.00000          -0.777488          -21.15652
    104       2.00000          -0.777488          -21.15652
    105       2.00000          -0.777483          -21.15640
    106       2.00000          -0.777482          -21.15636
    107       2.00000          -0.777460          -21.15575
    108       2.00000          -0.777182          -21.14819
    109       2.00000          -0.777123          -21.14660
    110       2.00000          -0.660501          -17.97315
    111       2.00000          -0.660362          -17.96937
    112       2.00000          -0.660187          -17.96459
    113       2.00000          -0.660142          -17.96338
    114       2.00000          -0.660134          -17.96315
    115       2.00000          -0.660123          -17.96287
    116       2.00000          -0.660121          -17.96280
    117       2.00000          -0.660111          -17.96254
    118       2.00000          -0.660102          -17.96229
    119       2.00000          -0.660060          -17.96115
    120       2.00000          -0.659888          -17.95648
    121       2.00000          -0.659763          -17.95308
    122       2.00000          -0.643015          -17.49732
    123       2.00000          -0.642883          -17.49375
    124       2.00000          -0.642795          -17.49133
    125       2.00000          -0.642793          -17.49130
    126       2.00000          -0.642765          -17.49052
    127       2.00000          -0.642751          -17.49014
    128       2.00000          -0.642751          -17.49014
    129       2.00000          -0.642738          -17.48979
    130       2.00000          -0.642709          -17.48900
    131       2.00000          -0.642708          -17.48899
    132       2.00000          -0.642618          -17.48652
    133       2.00000          -0.642485          -17.48290
    134       2.00000          -0.618391          -16.82728
    135       2.00000          -0.618328          -16.82557
    136       2.00000          -0.618244          -16.82327
    137       2.00000          -0.618151          -16.82073
    138       2.00000          -0.618139          -16.82042
    139       2.00000          -0.618121          -16.81994
    140       2.00000          -0.618120          -16.81991
    141       2.00000          -0.618103          -16.81945
    142       2.00000          -0.618091          -16.81911
    143       2.00000          -0.617998          -16.81659
    144       2.00000          -0.617907          -16.81410
    145       2.00000          -0.617851          -16.81257
    146       2.00000          -0.576154          -15.67795
    147       2.00000          -0.576030          -15.67458
    148       2.00000          -0.576018          -15.67426
    149       2.00000          -0.576016          -15.67419
    150       2.00000          -0.576007          -15.67395
    151       2.00000          -0.575883          -15.67059
    152       2.00000          -0.513775          -13.98052
    153       2.00000          -0.513575          -13.97508
    154       2.00000          -0.513494          -13.97288
    155       2.00000          -0.513494          -13.97287
    156       2.00000          -0.513410          -13.97060
    157       2.00000          -0.513234          -13.96581
    158       2.00000          -0.499199          -13.58390
    159       2.00000          -0.498868          -13.57490
    160       2.00000          -0.498774          -13.57233
    161       2.00000          -0.498749          -13.57165
    162       2.00000          -0.498748          -13.57164
    163       2.00000          -0.498748          -13.57164
    164       2.00000          -0.498748          -13.57163
    165       2.00000          -0.498748          -13.57162
    166       2.00000          -0.498744          -13.57151
    167       2.00000          -0.498722          -13.57092
    168       2.00000          -0.498629          -13.56839
    169       2.00000          -0.498295          -13.55928
    170       2.00000          -0.461887          -12.56858
    171       2.00000          -0.461574          -12.56008
    172       2.00000          -0.461454          -12.55679
    173       2.00000          -0.461401          -12.55536
    174       2.00000          -0.461385          -12.55494
    175       2.00000          -0.461384          -12.55490
    176       2.00000          -0.461381          -12.55483
    177       2.00000          -0.461380          -12.55479
    178       2.00000          -0.461365          -12.55437
    179       2.00000          -0.461314          -12.55298
    180       2.00000          -0.461189          -12.54960
    181       2.00000          -0.460911          -12.54203
    182       2.00000          -0.455037          -12.38218
    183       2.00000          -0.454809          -12.37598
    184       2.00000          -0.454759          -12.37461
    185       2.00000          -0.454732          -12.37388
    186       2.00000          -0.454709          -12.37325
    187       2.00000          -0.454681          -12.37250
    188       2.00000          -0.454621          -12.37088
    189       2.00000          -0.454341          -12.36326
    190       2.00000          -0.357143           -9.71834
    191       2.00000          -0.356952           -9.71317
    192       2.00000          -0.356760           -9.70793
    193       0.00000          -0.167648           -4.56194
    194       0.00000          -0.167556           -4.55942
    195       0.00000          -0.167393           -4.55499
    196       0.00000          -0.167393           -4.55498
    197       0.00000          -0.167239           -4.55079
    198       0.00000          -0.167150           -4.54838
    199       0.00000          -0.142617           -3.88081
    200       0.00000          -0.142547           -3.87889
    201       0.00000          -0.142427           -3.87565
    202       0.00000          -0.142427           -3.87563
    203       0.00000          -0.142319           -3.87271
    204       0.00000          -0.142251           -3.87085
    205       0.00000          -0.136531           -3.71521
    206       0.00000          -0.136372           -3.71087
    207       0.00000          -0.136216           -3.70663
    208       0.00000          -0.036023           -0.98024
    209       0.00000          -0.035897           -0.97681
    210       0.00000          -0.035583           -0.96826
    211       0.00000          -0.035583           -0.96826
    212       0.00000          -0.035527           -0.96675
    213       0.00000          -0.035519           -0.96651
    214       0.00000          -0.035516           -0.96644
    215       0.00000          -0.035508           -0.96621
    216       0.00000          -0.035455           -0.96478
    217       0.00000          -0.035452           -0.96469
    218       0.00000          -0.035181           -0.95732
    219       0.00000          -0.035076           -0.95446
    220       0.00000          -0.027820           -0.75701
    221       0.00000          -0.027745           -0.75499
    222       0.00000          -0.027495           -0.74819
    223       0.00000          -0.027487           -0.74796
    224       0.00000          -0.027445           -0.74683
    225       0.00000          -0.027437           -0.74661
    226       0.00000          -0.027172           -0.73939
    227       0.00000          -0.027088           -0.73711
    228       0.00000          -0.007728           -0.21028
    229       0.00000          -0.007717           -0.20999
    230       0.00000          -0.007678           -0.20894
    231       0.00000          -0.007662           -0.20849
    232       0.00000           0.020439            0.55616
    233       0.00000           0.020721            0.56384
    234       0.00000           0.020947            0.57000
    235       0.00000           0.020966            0.57052
    236       0.00000           0.021015            0.57186
    237       0.00000           0.021016            0.57189
    238       0.00000           0.021021            0.57201
    239       0.00000           0.021022            0.57204
    240       0.00000           0.021070            0.57334
    241       0.00000           0.021090            0.57388
    242       0.00000           0.021314            0.57998
    243       0.00000           0.021594            0.58759
    244       0.00000           0.068424            1.86192
    245       0.00000           0.068642            1.86784
    246       0.00000           0.068747            1.87070
    247       0.00000           0.068905            1.87499
    248       0.00000           0.068939            1.87592
    249       0.00000           0.068962            1.87655
    250       0.00000           0.068964            1.87661
    251       0.00000           0.068988            1.87725
    252       0.00000           0.069023            1.87821
    253       0.00000           0.069154            1.88179
    254       0.00000           0.069226            1.88374
    255       0.00000           0.069379            1.88789
    256       0.00000           0.072343            1.96855
    257       0.00000           0.072603            1.97564
    258       0.00000           0.072786            1.98061
    259       0.00000           0.072791            1.98073
    260       0.00000           0.072792            1.98078
    261       0.00000           0.072792            1.98078
    262       0.00000           0.072793            1.98079
    263       0.00000           0.072793            1.98079
    264       0.00000           0.072801            1.98101
    265       0.00000           0.072819            1.98151
    266       0.00000           0.072999            1.98641
    267       0.00000           0.073343            1.99577
    268       0.00000           0.085702            2.33208
    269       0.00000           0.085775            2.33404
    270       0.00000           0.085870            2.33664
    271       0.00000           0.085871            2.33667
    272       0.00000           0.085978            2.33958
    273       0.00000           0.086055            2.34167
    274       0.00000           0.107114            2.91473
    275       0.00000           0.107151            2.91572
    276       0.00000           0.107291            2.91954
    277       0.00000           0.107562            2.92692
    278       0.00000           0.107570            2.92713
    279       0.00000           0.107573            2.92721
    280       0.00000           0.107598            2.92789
    281       0.00000           0.107601            2.92797
    282       0.00000           0.107602            2.92800
    283       0.00000           0.107792            2.93316
    284       0.00000           0.107845            2.93462
    285       0.00000           0.107875            2.93542
    286       0.00000           0.108395            2.94959
    287       0.00000           0.108406            2.94988
    288       0.00000           0.108610            2.95542
    289       0.00000           0.108635            2.95611
    290       0.00000           0.108668            2.95700
    291       0.00000           0.108672            2.95712
    292       0.00000           0.108677            2.95725
    293       0.00000           0.108683            2.95740
    294       0.00000           0.108719            2.95841
    295       0.00000           0.108737            2.95890
    296       0.00000           0.109211            2.97179
    297       0.00000           0.109231            2.97233
    298       0.00000           0.159098            4.32927
    299       0.00000           0.187184            5.09355
    300       0.00000           0.187292            5.09647
    301       0.00000           0.187582            5.10435
    302       0.00000           0.187592            5.10465
    303       0.00000           0.187599            5.10484
    304       0.00000           0.187614            5.10522
    305       0.00000           0.187614            5.10525
    306       0.00000           0.187629            5.10564
    307       0.00000           0.187635            5.10582
    308       0.00000           0.187647            5.10612
    309       0.00000           0.187952            5.11443
    310       0.00000           0.188048            5.11705
    311       0.00000           0.252820            6.87958
    312       0.00000           0.253022            6.88509
    313       0.00000           0.253050            6.88584
    314       0.00000           0.253058            6.88606
    315       0.00000           0.253077            6.88658
    316       0.00000           0.253293            6.89246
    317       0.00000           0.293512            7.98687
    318       0.00000           0.293635            7.99021
    319       0.00000           0.293751            7.99338
    320       0.00000           0.293878            7.99683
    321       0.00000           0.442379           12.03774
    322       0.00000           0.442542           12.04217
    323       0.00000           0.442596           12.04365
    324       0.00000           0.442668           12.04561
    325       0.00000           0.442751           12.04788
    326       0.00000           0.442757           12.04804
    327       0.00000           0.442775           12.04853
    328       0.00000           0.442781           12.04867
    329       0.00000           0.442864           12.05095
    330       0.00000           0.442940           12.05300
    331       0.00000           0.442987           12.05429
    332       0.00000           0.443144           12.05857
    333       0.00000           0.484426           13.18191
    334       0.00000           0.484634           13.18756
    335       0.00000           0.484719           13.18987
    336       0.00000           0.484868           13.19394
    337       0.00000           0.484880           13.19426
    338       0.00000           0.484881           13.19428
    339       0.00000           0.484882           13.19430
    340       0.00000           0.484883           13.19434
    341       0.00000           0.484895           13.19466
    342       0.00000           0.485052           13.19894
    343       0.00000           0.485108           13.20045
    344       0.00000           0.485339           13.20674
    345       0.00000           0.511086           13.90736
    346       0.00000           0.511349           13.91452
    347       0.00000           0.511406           13.91607
    348       0.00000           0.511408           13.91613
    349       0.00000           0.511465           13.91766
    350       0.00000           0.511722           13.92467
    351       0.00000           0.519470           14.13551
    352       0.00000           0.519505           14.13645
    353       0.00000           0.519773           14.14374
    354       0.00000           0.519817           14.14495
    355       0.00000           0.550483           14.97941
    356       0.00000           0.550546           14.98111
    357       0.00000           0.550585           14.98219
    358       0.00000           0.550585           14.98219
    359       0.00000           0.550626           14.98330
    360       0.00000           0.550684           14.98488
    361       0.00000           0.567907           15.45352
    362       0.00000           0.568088           15.45846
    363       0.00000           0.568205           15.46163
    364       0.00000           0.568206           15.46168
    365       0.00000           0.568320           15.46478
    366       0.00000           0.568486           15.46929
    367       0.00000           0.580424           15.79414
    368       0.00000           0.580469           15.79535
    369       0.00000           0.580525           15.79689
    370       0.00000           0.580554           15.79766
    371       0.00000           0.580658           15.80051
    372       0.00000           0.580673           15.80091
    373       0.00000           0.580674           15.80095
    374       0.00000           0.580689           15.80135
    375       0.00000           0.580797           15.80429
    376       0.00000           0.580887           15.80674
    377       0.00000           0.580902           15.80714
    378       0.00000           0.580925           15.80777
    379       0.00000           0.681939           18.55652
    380       0.00000           0.733718           19.96549
    381       0.00000           0.733767           19.96681
    382       0.00000           0.738519           20.09613
    383       0.00000           0.739047           20.11049
    384       0.00000           0.739062           20.11090

  What follows are estimated values for band gap, HOMO, LUMO, etc.
  | They are estimated on a discrete k-point grid and not necessarily exact.
  | For converged numbers, create a DOS and/or band structure plot on a denser k-grid.

  Highest occupied state (VBM) at     -9.70793264 eV (relative to internal zero)
  | Occupation number:      2.00000000
  | K-point:       1 at    0.000000    0.000000    0.000000 (in units of recip. lattice)

  Lowest unoccupied state (CBM) at    -4.69163084 eV (relative to internal zero)
  | Occupation number:      0.00000000
  | K-point:       5 at    0.500000    0.000000    0.000000 (in units of recip. lattice)

  ESTIMATED overall HOMO-LUMO gap:      5.01630180 eV between HOMO at k-point 1 and LUMO at k-point 5
  | This appears to be an indirect band gap.
  | Smallest direct gap :      5.14598989 eV for k_point 1 at    0.500000    0.000000    0.000000 (in units of recip. lattice)
  The gap value is above 0.2 eV. Unless you are using a very sparse k-point grid,
  this system is most likely an insulator or a semiconductor.
  Calculating total energy contributions from superposition of free atom densities.

  Total energy components:
  | Sum of eigenvalues            :       -1457.28871665 Ha      -39654.84359633 eV
  | XC energy correction          :        -325.02131363 Ha       -8844.27993592 eV
  | XC potential correction       :         427.90485738 Ha       11643.88360353 eV
  | Free-atom electrostatic energy:       -1065.35151073 Ha      -28989.68958613 eV
  | Hartree energy correction     :           0.00000000 Ha           0.00000000 eV
  | Entropy correction            :           0.00000000 Ha           0.00000000 eV
  | ---------------------------
  | Total energy                  :       -2419.75668364 Ha      -65844.92951485 eV
  | Total energy, T -> 0          :       -2419.75668364 Ha      -65844.92951485 eV  <-- do not rely on this value for anything but (periodic) metals
  | Electronic free energy        :       -2419.75668364 Ha      -65844.92951485 eV

  Derived energy quantities:
  | Kinetic energy                :        2406.21928571 Ha       65476.55817490 eV
  | Electrostatic energy          :       -4500.95465572 Ha     -122477.20775384 eV
  | Energy correction for multipole
  | error in Hartree potential    :           0.00000000 Ha           0.00000000 eV
  | Sum of eigenvalues per atom                           :        -619.60693119 eV
  | Total energy (T->0) per atom                          :       -1028.82702367 eV  <-- do not rely on this value for anything but (periodic) metals
  | Electronic free energy per atom                       :       -1028.82702367 eV
  Initialize hartree_potential_storage
  Max. number of atoms included in rho_multipole:           64

  End scf initialization - timings             :  max(cpu_time)    wall_clock(cpu1)
  | Time for scf. initialization               :       10.316 s          10.912 s
  | Boundary condition initialization          :        0.466 s           0.479 s
  | Integration                                :        4.880 s           4.890 s
  | Solution of K.-S. eqns.                    :        0.344 s           0.393 s
  | Grid partitioning                          :        0.317 s           0.556 s
  | Preloading free-atom quantities on grid    :        0.004 s           0.004 s
  | Free-atom superposition energy             :        0.290 s           0.293 s
  | Total energy evaluation                    :        0.002 s           0.009 s

  Partial memory accounting:
  | Current value for overall tracked memory usage:
  |   Minimum:       36.536 MB (on task  0)
  |   Maximum:       36.536 MB (on task  0)
  |   Average:       36.536 MB
  | Peak value for overall tracked memory usage:
  |   Minimum:       79.844 MB (on task  0 after allocating temp_ham_ovlp)
  |   Maximum:       79.844 MB (on task  0 after allocating temp_ham_ovlp)
  |   Average:       79.844 MB
  | Largest tracked array allocation so far:
  |   Minimum:       21.654 MB (overlap_matrix on task  0)
  |   Maximum:       21.654 MB (overlap_matrix on task  0)
  |   Average:       21.654 MB
  Note:  These values currently only include a subset of arrays which are explicitly tracked.
  The "true" memory usage will be greater.
------------------------------------------------------------

------------------------------------------------------------
          Begin self-consistency iteration #    1

  Date     :  20200128, Time     :  143023.278
------------------------------------------------------------
  Evaluating new KS density using the density matrix
  Evaluating density matrix
  Time summed over all CPUs for getting density from density matrix: real work       82.918 s, elapsed       91.329 s
  Integration grid: deviation in total charge (<rho> - N_e) =   3.410605E-13
  Pulay mixing of updated and previous charge densities.
  Renormalizing the density to the exact electron count on the 3D integration grid.
  | Formal number of electrons (from input files) :     384.0000000000
  | Integrated number of electrons on 3D grid     :     383.9963540901
  | Charge integration error                      :      -0.0036459099
  | Normalization factor for density and gradient :       1.0000094946

  Evaluating partitioned Hartree potential by multipole expansion.
  | Original multipole sum: apparent total charge =  -0.142960E-11
  | Sum of charges compensated after spline to logarithmic grids =   0.444995E-04
  | Analytical far-field extrapolation by fixed multipoles:
  | Hartree multipole sum: apparent total charge =  -0.142964E-11
  Summing up the Hartree potential.
  Time summed over all CPUs for potential: real work       50.862 s, elapsed       59.960 s
  | RMS charge density error from multipole expansion :   0.678552E-02
  | Average real-space part of the electrostatic potential :      0.05973495 eV

  Integrating Hamiltonian matrix: batch-based integration.
  Time summed over all CPUs for integration: real work       81.224 s, elapsed       85.490 s

  Updating Kohn-Sham eigenvalues and eigenvectors using ELSI and the ELPA eigensolver.
  Starting ELPA eigensolver
  Finished transformation to standard eigenproblem
  | Time :     0.024 s
  Finished solving standard eigenproblem
[...]
    353       0.00000           0.557978           15.18335
    354       0.00000           0.558033           15.18484
    355       0.00000           0.583060           15.86587
    356       0.00000           0.583142           15.86811
    357       0.00000           0.583174           15.86897
    358       0.00000           0.583174           15.86897
    359       0.00000           0.583205           15.86982
    360       0.00000           0.583282           15.87190
    361       0.00000           0.599396           16.31041
    362       0.00000           0.599425           16.31120
    363       0.00000           0.599443           16.31168
    364       0.00000           0.599521           16.31381
    365       0.00000           0.599616           16.31639
    366       0.00000           0.599630           16.31677
    367       0.00000           0.599632           16.31682
    368       0.00000           0.599646           16.31720
    369       0.00000           0.599744           16.31986
    370       0.00000           0.599844           16.32259
    371       0.00000           0.599850           16.32274
    372       0.00000           0.599870           16.32329
    373       0.00000           0.618285           16.82439
    374       0.00000           0.618481           16.82972
    375       0.00000           0.618568           16.83210
    376       0.00000           0.618570           16.83214
    377       0.00000           0.618673           16.83496
    378       0.00000           0.618886           16.84075
    379       0.00000           0.696457           18.95156
    380       0.00000           0.754907           20.54205
    381       0.00000           0.754911           20.54217
    382       0.00000           0.784830           21.35631
    383       0.00000           0.785384           21.37139
    384       0.00000           0.785392           21.37161

  What follows are estimated values for band gap, HOMO, LUMO, etc.
  | They are estimated on a discrete k-point grid and not necessarily exact.
  | For converged numbers, create a DOS and/or band structure plot on a denser k-grid.

  Highest occupied state (VBM) at     -8.23043014 eV (relative to internal zero)
  | Occupation number:      2.00000000
  | K-point:       1 at    0.000000    0.000000    0.000000 (in units of recip. lattice)

  Lowest unoccupied state (CBM) at    -4.04309261 eV (relative to internal zero)
  | Occupation number:      0.00000000
  | K-point:       5 at    0.500000    0.000000    0.000000 (in units of recip. lattice)

  ESTIMATED overall HOMO-LUMO gap:      4.18733753 eV between HOMO at k-point 1 and LUMO at k-point 5
  | This appears to be an indirect band gap.
  | Smallest direct gap :      4.47566629 eV for k_point 1 at    0.500000    0.000000    0.000000 (in units of recip. lattice)
  The gap value is above 0.2 eV. Unless you are using a very sparse k-point grid,
  this system is most likely an insulator or a semiconductor.

  Self-consistency cycle converged.

  End self-consistency iteration #    13       :  max(cpu_time)    wall_clock(cpu1)
  | Time for this iteration                    :       30.831 s          30.842 s
  | Charge density & force component update    :       23.129 s          23.132 s
  | Density mixing                             :        0.001 s           0.002 s
  | Hartree multipole update                   :        0.004 s           0.003 s
  | Hartree multipole summation                :        4.875 s           4.876 s
  | Integration                                :        2.658 s           2.658 s
  | Solution of K.-S. eqns.                    :        0.158 s           0.158 s
  | Total energy evaluation                    :        0.005 s           0.009 s

  Partial memory accounting:
  | Current value for overall tracked memory usage:
  |   Minimum:       36.537 MB (on task  0)
  |   Maximum:       36.537 MB (on task  0)
  |   Average:       36.537 MB
  | Peak value for overall tracked memory usage:
  |   Minimum:       79.844 MB (on task  0 after allocating temp_ham_ovlp)
  |   Maximum:       79.844 MB (on task  0 after allocating temp_ham_ovlp)
  |   Average:       79.844 MB
  | Largest tracked array allocation so far:
  |   Minimum:       21.654 MB (overlap_matrix on task  0)
  |   Maximum:       21.654 MB (overlap_matrix on task  0)
  |   Average:       21.654 MB
  Note:  These values currently only include a subset of arrays which are explicitly tracked.
  The "true" memory usage will be greater.
------------------------------------------------------------
  Removing unitary transformations (pure translations, rotations) from forces on atoms.
  Atomic forces before filtering:
  | Net force on center of mass :  -0.136819E-04 -0.309699E-09 -0.177984E-08 eV/A
  Atomic forces after filtering:
  | Net force on center of mass :   0.780527E-16 -0.728259E-16 -0.216039E-16 eV/A

  Energy and forces in a compact form:
  | Total energy uncorrected      :         -0.658224123123090E+05 eV
  | Total energy corrected        :         -0.658224123123090E+05 eV  <-- do not rely on this value for anything but (periodic) metals
  | Electronic free energy        :         -0.658224123123090E+05 eV
  Total atomic forces (unitary forces cleaned) [eV/Ang]:
  |    1         -0.447781359884838E+00          0.266060896306809E-10          0.102343995035080E-09
  |    2          0.149979648659949E-02         -0.131671006728643E-09          0.846423609931645E-10
  |    3          0.100129684502092E-02          0.342924969201449E-11         -0.549530830332707E-10
  |    4          0.119179369630927E-02         -0.299222228710102E-11         -0.944922622400381E-10
  |    5          0.100129595098675E-02         -0.527367781626364E-10          0.327077361393881E-10
  |    6          0.119177499265750E-02          0.655499387516222E-10          0.287726690645130E-09
  |    7         -0.563517850194156E-02          0.760819658832824E-10          0.732733638309322E-10
  |    8          0.526882944752755E-03          0.759472246580361E-10          0.131090640717815E-09
  |    9          0.940656257407540E-01          0.223987652151609E-01          0.223987633937650E-01
  |   10         -0.772582397105785E-03          0.100282913316708E-02          0.100282845771827E-02
  |   11         -0.162137671728221E-02          0.106226073751666E-02         -0.257408935348357E-03
  |   12          0.850194228039211E-03          0.102385725101865E-02          0.206592606773235E-02
  |   13         -0.162140148844531E-02         -0.257407832562373E-03          0.106228624999102E-02
  |   14          0.850193915345161E-03          0.206592462223438E-02          0.102385780345548E-02
  |   15          0.350241814144252E-02          0.211268122085430E-02          0.211269978398277E-02
  |   16         -0.332165981446479E-03          0.318842433471361E-03          0.318827990167837E-03
  |   17          0.154742507486766E-01          0.159524653441167E-01          0.725553897323778E-02
  |   18          0.153023504892266E-01         -0.157186338866519E-01          0.721062568982288E-02
  |   19          0.154742507970115E-01         -0.159524651839590E-01         -0.725553902293417E-02
  |   20          0.153023504411414E-01          0.157186336867879E-01         -0.721062586476404E-02
  |   21          0.821937889540918E-03         -0.759350555171696E-03          0.393707313576052E-03
  |   22          0.821602617410202E-03          0.744961942459482E-03          0.396370722318309E-03
  |   23          0.821937887247965E-03          0.759350375516104E-03         -0.393707333975643E-03
  |   24          0.821602586490530E-03         -0.744961710746534E-03         -0.396370600957776E-03
  |   25          0.882880729581714E-03          0.106751990578111E-02         -0.208418523625431E-02
  |   26         -0.158983693445606E-02          0.102827842465194E-02          0.248901581401768E-03
  |   27         -0.750936533306025E-03          0.984088692755812E-03         -0.984089827053426E-03
  |   28          0.921759275815037E-01          0.205733407649538E-01         -0.205733397283754E-01
  |   29         -0.333127005558408E-03          0.313110888329664E-03         -0.313095115863939E-03
  |   30          0.347086912334149E-02          0.210442057423219E-02         -0.210443844283825E-02
  |   31          0.882879725029941E-03          0.208418303165997E-02         -0.106751919700564E-02
  |   32         -0.158986206549507E-02         -0.248902383363043E-03         -0.102830191409512E-02
  |   33          0.154742521622940E-01          0.725553987587181E-02          0.159524640298647E-01
  |   34          0.153023507710134E-01          0.721062616514985E-02         -0.157186335328560E-01
  |   35          0.822005345522988E-03          0.393721053617007E-03         -0.759406367080842E-03
  |   36          0.821668363475575E-03          0.396386021188616E-03          0.745015815657828E-03
  |   37          0.154742521854261E-01         -0.725553975933342E-02         -0.159524640872739E-01
  |   38          0.153023508128909E-01         -0.721062642188215E-02          0.157186335043844E-01
  |   39          0.822005381095199E-03         -0.393721141838825E-03          0.759406116376110E-03
  |   40          0.821668200710541E-03         -0.396386158703600E-03         -0.745015820962112E-03
  |   41          0.882879600236306E-03         -0.208418289145683E-02          0.106751900589079E-02
  |   42         -0.158986204078682E-02          0.248901983332078E-03          0.102830211543367E-02
  |   43         -0.333126696705165E-03         -0.313110793931048E-03          0.313095219052071E-03
  |   44          0.347086928362134E-02         -0.210442051467750E-02          0.210443832591798E-02
  |   45         -0.750936543122243E-03         -0.984088822529843E-03          0.984089702326008E-03
  |   46          0.921759275057953E-01         -0.205733406901860E-01          0.205733397130290E-01
  |   47          0.882880711498095E-03         -0.106751965996630E-02          0.208418527518500E-02
  |   48         -0.158983699391666E-02         -0.102827833579573E-02         -0.248901868820534E-03
  |   49         -0.141342197271045E-01         -0.712572799556691E-02         -0.712572833219360E-02
  |   50         -0.630886549816681E-03         -0.394683687037636E-03         -0.394680989837239E-03
  |   51         -0.140255172255999E-01         -0.694061325891731E-02          0.694061258011524E-02
  |   52         -0.617646200158111E-03         -0.384832144389603E-03          0.384828839747274E-03
  |   53         -0.140255171716257E-01          0.694061322418902E-02         -0.694061240963223E-02
  |   54         -0.617646244728779E-03          0.384832472380865E-03         -0.384828863545267E-03
  |   55         -0.141342198174051E-01          0.712572794547780E-02          0.712572840209360E-02
  |   56         -0.630886425559134E-03          0.394683627491681E-03          0.394681027207359E-03
  |   57          0.350241810236218E-02         -0.211268134589055E-02         -0.211269988006504E-02
  |   58         -0.332166107230721E-03         -0.318842460534333E-03         -0.318828083630813E-03
  |   59         -0.162140138713390E-02          0.257407664778293E-03         -0.106228619477633E-02
  |   60          0.850193913050371E-03         -0.206592477084690E-02         -0.102385759302666E-02
  |   61         -0.162137665977450E-02         -0.106226047420937E-02          0.257408972615875E-03
  |   62          0.850194131377541E-03         -0.102385731524193E-02         -0.206592607395854E-02
  |   63          0.940656257411107E-01         -0.223987652815166E-01         -0.223987634218606E-01
  |   64         -0.772582469048027E-03         -0.100282886145243E-02         -0.100282849541995E-02

  ------------------------------------
  Start decomposition of the XC Energy
  ------------------------------------
  X and C from original XC functional choice
  Hartree-Fock Energy :          0.000000000 Ha              0.000000000 eV
  X Energy            :       -301.919138817 Ha          -8215.637774262 eV
  C Energy            :        -25.633833051 Ha           -697.532087347 eV
  Total XC Energy     :       -327.552971868 Ha          -8913.169861609 eV
  ------------------------------------
  LDA X and C from self-consistent density
  X Energy LDA        :       -301.919138817 Ha          -8215.637774262 eV
  C Energy LDA        :        -25.633833051 Ha           -697.532087347 eV
  ------------------------------------
  End decomposition of the XC Energy
  ------------------------------------

------------------------------------------------------------
  |------------------------------------------------------
  | Final ELSI Output
  |------------------------------------------------------
  |
  | Physical Properties
  |   Number of electrons       :        0.38400000E+03
  |   Number of spins           :                     1
  |   Number of k-points        :                     8
  |   Number of states          :                   384
  |
  | Matrix Properties
  |   Matrix format             :           BLACS_DENSE
  |   Number of basis functions :                   896
  |   Matrix sparsity           :        0.19005600E-01
  |
  | Computational Details
  |   Parallel mode             :            MULTI_PROC
  |   Number of MPI tasks       :                    32
  |   Solver requested          :                  ELPA
  |   Number of ELSI calls      :                    14
  |
  |------------------------------------------------------
  | ELSI Project (c)  elsi-interchange.org
  |------------------------------------------------------

------------------------------------------------------------------------------
  Final output of selected total energy values:

  The following output summarizes some interesting total energy values
  at the end of a run (AFTER all relaxation, molecular dynamics, etc.).

  | Total energy of the DFT / Hartree-Fock s.c.f. calculation      :         -65822.412312309 eV
  | Final zero-broadening corrected energy (caution - metals only) :         -65822.412312309 eV
  | For reference only, the value of 1 Hartree used in FHI-aims is :             27.211384500 eV
  | For reference only, the overall average (free atom contribution
  | + realspace contribution) of the electrostatic potential after
  | s.c.f. convergence is                                          :            -20.604082319 eV

  Before relying on these values, please be sure to understand exactly which
  total energy value is referred to by a given number. Different objects may
  all carry the same name 'total energy'. Definitions:

  Total energy of the DFT / Hartree-Fock s.c.f. calculation:
  | Note that this energy does not include ANY quantities calculated after the
  | s.c.f. cycle, in particular not ANY RPA, MP2, etc. many-body perturbation terms.

  Final zero-broadening corrected energy:
  | For metallic systems only, a broadening of the occupation numbers at the Fermi
  | level can be extrapolated back to zero broadening by an electron-gas inspired
  | formula. For all systems that are not real metals, this value can be
  | meaningless and should be avoided.

------------------------------------------------------------------------------
  Methods described in the following list of references were used in this FHI-aims run.
  If you publish the results, please make sure to cite these reference if they apply.
  FHI-aims is an academic code, and for our developers (often, Ph.D. students
  and postdocs), scientific credit in the community is essential.
  Thank you for helping us!

  For any use of FHI-aims, please cite:

    Volker Blum, Ralf Gehrke, Felix Hanke, Paula Havu, Ville Havu,
    Xinguo Ren, Karsten Reuter, and Matthias Scheffler
    'Ab initio molecular simulations with numeric atom-centered orbitals'
    Computer Physics Communications 180, 2175-2196 (2009)
    http://dx.doi.org/10.1016/j.cpc.2009.06.022


  The provided symmetry information was generated with SPGlib:

    Atsushi Togo, Yusuke Seto, Dimitar Pashov
    SPGlib 1.7.3 obtained from http://spglib.sourceforge.net
    Copyright (C) 2008 Atsushi Togo


  The ELSI infrastructure was used in your run to solve the Kohn-Sham electronic structure.
  Please check out http://elsi-interchange.org to learn more.
  If scalability is important for your project, please acknowledge ELSI by citing:

    V. W-z. Yu, F. Corsetti, A. Garcia, W. P. Huhn, M. Jacquelin, W. Jia,
    B. Lange, L. Lin, J. Lu, W. Mi, A. Seifitokaldani, A. Vazquez-Mayagoitia,
    C. Yang, H. Yang, and V. Blum
    'ELSI: A unified software interface for Kohn-Sham electronic structure solvers'
    Computer Physics Communications 222, 267-285 (2018).
    http://dx.doi.org/10.1016/j.cpc.2017.09.007


  For the real-space grid partitioning and parallelization used in this calculation, please cite:

    Ville Havu, Volker Blum, Paula Havu, and Matthias Scheffler,
    'Efficient O(N) integration for all-electron electronic structure calculation'
    'using numerically tabulated basis functions'
    Journal of Computational Physics 228, 8367-8379 (2009).
    http://dx.doi.org/10.1016/j.jcp.2009.08.008

  Of course, there are many other important community references, e.g., those cited in the
  above references. Our list is limited to references that describe implementations in the
  FHI-aims code. The reason is purely practical (length of this list) - please credit others as well.

------------------------------------------------------------
          Leaving FHI-aims.
          Date     :  20200128, Time     :  143227.388

          Computational steps:
          | Number of self-consistency cycles          :           13
          | Number of SCF (re)initializations          :            1

          Detailed time accounting                     :  max(cpu_time)    wall_clock(cpu1)
          | Total time                                 :      134.682 s         136.761 s
          | Preparation time                           :        0.100 s           0.444 s
          | Boundary condition initalization           :        0.466 s           0.479 s
          | Grid partitioning                          :        0.317 s           0.556 s
          | Preloading free-atom quantities on grid    :        0.004 s           0.004 s
          | Free-atom superposition energy             :        0.290 s           0.293 s
          | Total time for integrations                :       39.673 s          39.682 s
          | Total time for solution of K.-S. equations :        2.397 s           2.449 s
          | Total time for density & force components  :       56.126 s          56.163 s
          | Total time for mixing & preconditioning    :        4.952 s           4.975 s
          | Total time for Hartree multipole update    :        0.057 s           0.059 s
          | Total time for Hartree multipole sum       :       25.865 s          25.881 s
          | Total time for total energy evaluation     :        0.010 s           0.021 s

          Partial memory accounting:
          | Residual value for overall tracked memory usage across tasks:     0.000000 MB (should be 0.000000 MB)
          | Peak values for overall tracked memory usage:
          |   Minimum:       79.844 MB (on task  0 after allocating temp_ham_ovlp)
          |   Maximum:       79.844 MB (on task  0 after allocating temp_ham_ovlp)
          |   Average:       79.844 MB
          | Largest tracked array allocation:
          |   Minimum:       21.654 MB (overlap_matrix on task  0)
          |   Maximum:       21.654 MB (overlap_matrix on task  0)
          |   Average:       21.654 MB
          Note:  These values currently only include a subset of arrays which are explicitly tracked.
          The "true" memory usage will be greater.

          Have a nice day.
------------------------------------------------------------
