0.280028521
  2.284498636  -0.006886635  -0.000274599  -0.006886635   2.276546950   0.000158380  -0.000274599   0.000158380   2.383740458
   3.094207667   0.000000873  -0.000000903  -0.013226572   3.735134512   0.318152147   0.004331858  -0.362939130   3.526944854
  -1.346587926   0.435526998   0.257208306   0.516796279  -2.059121832  -0.735968528   0.325362976  -0.679512848  -1.763447756
