 *********************************************************
 *                                                       *
 *                  WELCOME TO ABACUS                    *
 *                                                       *
 *            'Atomic-orbital Based Ab-initio            *
 *                  Computation at UStc'                 *
 *                                                       *
 *          Website: http://abacus.ustc.edu.cn/          *
 *                                                       *
 *********************************************************
 Mon Jul 18 11:02:22 2022
 MAKE THE DIR         : OUT.ABACUS/
 UNIFORM GRID DIM     : 90 * 90 * 90
 UNIFORM GRID DIM(BIG): 45 * 45 * 45
 DONE(0.0887968  SEC) : SETUP UNITCELL
 DONE(0.152374   SEC) : SYMMETRY
 DONE(0.153268   SEC) : INIT K-POINTS
 ---------------------------------------------------------
 Self-consistent calculations for electrons
 ---------------------------------------------------------
 SPIN    KPOINTS         PROCESSORS  NBASE       
 1       18              8           704         
 ---------------------------------------------------------
 Use Systematically Improvable Atomic bases
 ---------------------------------------------------------
 ELEMENT ORBITALS        NBASE       NATOM       XC          
 Al      3s3p2d-10au     22          32          
 ---------------------------------------------------------
 Initial plane wave basis and FFT box
 ---------------------------------------------------------
 DONE(0.173506   SEC) : INIT PLANEWAVE
 DONE(0.233752   SEC) : INIT CHARGE
 START POTENTIAL      : atomic
 DONE(0.380414   SEC) : INIT POTENTIAL
 -------------------------------------------
 SELF-CONSISTENT : 
 -------------------------------------------
 ITER   ETOT(eV)       EDIFF(eV)      DRHO       TIME(s)    
 GE1    -2.017000e+03  0.000000e+00   9.519e-02  2.721e+01  
 GE2    -2.016968e+03  3.171577e-02   2.625e-02  2.680e+01  
 GE3    -2.016962e+03  6.352559e-03   2.693e-03  2.690e+01  
 GE4    -2.016964e+03  -2.272341e-03  3.710e-03  2.679e+01  
 GE5    -2.016971e+03  -6.543145e-03  1.525e-03  2.685e+01  
 GE6    -2.016972e+03  -9.679255e-04  9.489e-05  2.704e+01  
 GE7    -2.016972e+03  -3.133626e-06  1.593e-05  2.714e+01  
 GE8    -2.016972e+03  -4.547868e-08  3.181e-06  2.772e+01  
 GE9    -2.016972e+03  5.911053e-09   5.285e-06  2.745e+01  
 GE10   -2.016972e+03  -1.558158e-08  9.145e-07  2.699e+01  
 GE11   -2.016972e+03  -4.060321e-11  6.326e-07  2.687e+01  
 GE12   -2.016972e+03  3.886307e-10   1.272e-07  2.693e+01  
 GE13   -2.016972e+03  1.469449e-11   3.477e-08  2.751e+01  
 GE14   -2.016972e+03  -8.414531e-10  8.572e-08  2.682e+01  
 GE15   -2.016972e+03  1.124902e-09   9.909e-09  2.673e+01  
 ><><><><><><><><><><><><><><><><><><><><><><
 TOTAL-STRESS (KBAR):
 ><><><><><><><><><><><><><><><><><><><><><><
 -5.257e-01     1.365e-16      0.000e+00      
 1.365e-16      -5.261e-01     0.000e+00      
 0.000e+00      0.000e+00      -5.261e-01     
 TOTAL-PRESSURE: -5.260e-01 KBAR

  |CLASS_NAME---------|NAME---------------|TIME(Sec)-----|CALLS----|AVG------|PER%-------
                       total               478.91         13        37        1e+02     %
   Run_lcao            lcao_line           478.89         1         4.8e+02   1e+02     %
   Potential           init_pot            0.2093         2         0.1       0.044     %
   PW_Basis            recip2real          0.22177        101       0.0022    0.046     %
   PW_Basis            gathers_scatterp    0.10299        101       0.001     0.022     %
   Potential           v_of_rho            0.96207        17        0.057     0.2       %
   XC_Functional       v_xc                0.96289        19        0.051     0.2       %
   PW_Basis            real2recip          0.27633        150       0.0018    0.058     %
   PW_Basis            gatherp_scatters    0.1184         150       0.00079   0.025     %
   ORB_control         read_orb_first      0.21339        1         0.21      0.045     %
   LCAO_Orbitals       Read_Orbitals       0.21339        1         0.21      0.045     %
   NOrbital_Lm         extra_uniform       0.15193        8         0.019     0.032     %
   Mathzone_Add1       Uni_Deriv_Phi       0.14416        8         0.018     0.03      %
   ORB_control         set_orb_tables      2.3656         1         2.4       0.49      %
   ORB_gen_tables      gen_tables          2.3656         1         2.4       0.49      %
   ORB_table_phi       init_Table          1.5061         1         1.5       0.31      %
   ORB_table_phi       cal_ST_Phi12_R      1.4931         186       0.008     0.31      %
   ORB_table_beta      init_Table_Beta     0.49308        1         0.49      0.1       %
   ORB_table_beta      VNL_PhiBeta_R       0.49051        72        0.0068    0.1       %
   LOOP_ions           opt_ions            475.89         1         4.8e+02   99        %
   ESolver_KS_LCAO     Run                 407.94         1         4.1e+02   85        %
   ESolver_KS_LCAO     beforescf           2.1944         1         2.2       0.46      %
   ESolver_KS_LCAO     set_matrix_grid     0.23403        1         0.23      0.049     %
   Grid_Technique      init                0.17127        1         0.17      0.036     %
   Grid_Driver         Find_atom           0.29418        19712     1.5e-05   0.061     %
   LCAO_Hamilt         set_lcao_matrices   1.6719         1         1.7       0.35      %
   LCAO_gen_fixedH     calculate_S_no      0.23734        1         0.24      0.05      %
   LCAO_gen_fixedH     build_Nonlocal_mu_new4.1635         2         2.1       0.87      %
   ORB_gen_tables      snap_psibeta_half   0.32988        58080     5.7e-06   0.069     %
   H_Ewald_pw          compute_ewald       0.11569        1         0.12      0.024     %
   Symmetry            rho_symmetry        0.4139         16        0.026     0.086     %
   HSolverLCAO         solve               404.14         15        27        84        %
   HamiltLCAO          each_k              173.49         270       0.64      36        %
   Gint_interface      cal_gint            350.59         31        11        73        %
   HamiltLCAO          H_k                 27.688         135       0.21      5.8       %
   LCAO_Hamilt         calculate_Hk        20.968         270       0.078     4.4       %
   Gint_k              folding_vl_k        13.019         270       0.048     2.7       %
   Gint_k              Distri              9.6214         270       0.036     2         %
   LCAO_nnr            folding_fixedH      7.7757         270       0.029     1.6       %
   Efficience          H_k                 24.598         135       0.18      5.1       %
   DiagoElpa           elpa_solve          31.037         270       0.11      6.5       %
   ElecStateLCAO       psiToRho            178.05         15        12        37        %
    Local_Orbital_wfc  wfc_2d_to_grid      0.14392        270       0.00053   0.03      %
   LCAO_Charge         cal_dk_k            26.976         15        1.8       5.6       %
   Charge              mix_rho             0.17432        14        0.012     0.036     %
   LOOP_ions           force_stress        67.947         1         68        14        %
   Force_Stress_LCAO   getForceStress      67.947         1         68        14        %
   Force_LCAO_k        ftable_k            67.549         1         68        14        %
   Force_LCAO_k        allocate_k          4.9257         1         4.9       1         %
   Force_LCAO_k        cal_foverlap_k      0.49157        1         0.49      0.1       %
   Force_LCAO_k        cal_edm_2d          0.46163        1         0.46      0.096     %
   Local_Orbital_Chargecal_dm_R            0.10869        1         0.11      0.023     %
   Force_LCAO_k        cal_fvl_dphi_k      29.31          1         29        6.1       %
   Force_LCAO_k        cal_fvnl_dbeta_k_new32.506         1         33        6.8       %
 ----------------------------------------------------------------------------------------

 START  Time  : Mon Jul 18 11:02:22 2022
 FINISH Time  : Mon Jul 18 11:10:21 2022
 TOTAL  Time  : 4.8e+02
 SEE INFORMATION IN : OUT.ABACUS/
