calculator: abacus
length_unit: au
nqpoint: 84
npath: 4
segment_nqpoint:
- 21
- 21
- 21
- 21
reciprocal_lattice:
- [  -0.13084403,   0.13084403,   0.13084403 ] # a*
- [   0.13084403,  -0.13084403,   0.13084403 ] # b*
- [   0.13084403,   0.13084403,  -0.13084403 ] # c*
natom: 1
lattice:
- [     0.000000000000000,     3.821343698739000,     3.821343698739000 ] # a
- [     3.821343698739000,     0.000000000000000,     3.821343698739000 ] # b
- [     3.821343698739000,     3.821343698739000,     0.000000000000000 ] # c
points:
- symbol: Al # 1
  coordinates: [  0.000000000000000,  0.000000000000000,  0.000000000000000 ]
  mass: 26.981539
  magnetic_moment: 0.00000000

phonon:
- q-position: [    1.0000000,    1.0000000,    1.0000000 ]
  distance:    0.0000000
  band:
  - # 1
    frequency:    0.0008274596
    eigenvector:
    - # atom 1
      - [ -0.00000000000000,  0.00000000000000 ]
      - [ -0.94156076491817,  0.00000000000000 ]
      - [ -0.33684317711170,  0.00000000000000 ]
  - # 2
    frequency:    0.0008274596
    eigenvector:
    - # atom 1
      - [  0.00000000000000,  0.00000000000000 ]
      - [ -0.33684317711170,  0.00000000000000 ]
      - [  0.94156076491817,  0.00000000000000 ]
  - # 3
    frequency:    0.0008274596
    eigenvector:
    - # atom 1
      - [  1.00000000000000,  0.00000000000000 ]
      - [  0.00000000000000,  0.00000000000000 ]
      - [  0.00000000000000,  0.00000000000000 ]

- q-position: [    0.9750000,    0.9750000,    1.0000000 ]
  distance:    0.0065422
  band:
  - # 1
    frequency:    0.4553000710
    eigenvector:
    - # atom 1
      - [  0.02549700102472,  0.00000000000000 ]
      - [  0.99967489862392,  0.00000000000000 ]
      - [  0.00000000000000,  0.00000000000000 ]
  - # 2
    frequency:    0.9079339170
    eigenvector:
    - # atom 1
      - [ -0.00000000000000,  0.00000000000000 ]
      - [ -0.00000000000000,  0.00000000000000 ]
      - [  1.00000000000000,  0.00000000000000 ]
  - # 3
    frequency:    0.4553000710
    eigenvector:
    - # atom 1
      - [  0.99967489862392,  0.00000000000000 ]
      - [ -0.02549700102472,  0.00000000000000 ]
      - [  0.00000000000000,  0.00000000000000 ]

- q-position: [    0.9500000,    0.9500000,    1.0000000 ]
  distance:    0.0130844
  band:
  - # 1
    frequency:    0.9076578150
    eigenvector:
    - # atom 1
      - [  0.07882041882585,  0.00000000000000 ]
      - [  0.99688883110210,  0.00000000000000 ]
      - [  0.00000000000000,  0.00000000000000 ]
  - # 2
    frequency:    1.8059702716
    eigenvector:
    - # atom 1
      - [ -0.00000000000000,  0.00000000000000 ]
      - [ -0.00000000000000,  0.00000000000000 ]
      - [  1.00000000000000,  0.00000000000000 ]
  - # 3
    frequency:    0.9076578150
    eigenvector:
    - # atom 1
      - [  0.99688883110210,  0.00000000000000 ]
      - [ -0.07882041882585,  0.00000000000000 ]
      - [  0.00000000000000,  0.00000000000000 ]

- q-position: [    0.9250000,    0.9250000,    1.0000000 ]
  distance:    0.0196266
  band:
  - # 1
    frequency:    1.3541588902
    eigenvector:
    - # atom 1
      - [ -0.05367566059083,  0.00000000000000 ]
      - [  0.99855842265745,  0.00000000000000 ]
      - [  0.00000000000000,  0.00000000000000 ]
  - # 2
    frequency:    2.6844781831
    eigenvector:
    - # atom 1
      - [  0.00000000000000,  0.00000000000000 ]
      - [  0.00000000000000,  0.00000000000000 ]
      - [  1.00000000000000,  0.00000000000000 ]
  - # 3
    frequency:    1.3541588902
    eigenvector:
    - # atom 1
      - [ -0.99855842265745,  0.00000000000000 ]
      - [ -0.05367566059083,  0.00000000000000 ]
      - [ -0.00000000000000,  0.00000000000000 ]

- q-position: [    0.9000000,    0.9000000,    1.0000000 ]
  distance:    0.0261688
  band:
  - # 1
    frequency:    1.7919377992
    eigenvector:
    - # atom 1
      - [ -0.00890116346336,  0.00000000000000 ]
      - [  0.99996038385978,  0.00000000000000 ]
      - [ -0.00000000000000,  0.00000000000000 ]
  - # 2
    frequency:    3.5343479234
    eigenvector:
    - # atom 1
      - [  0.00000000000000,  0.00000000000000 ]
      - [  0.00000000000000,  0.00000000000000 ]
      - [  1.00000000000000,  0.00000000000000 ]
  - # 3
    frequency:    1.7919377992
    eigenvector:
    - # atom 1
      - [  0.99996038385978,  0.00000000000000 ]
      - [  0.00890116346336,  0.00000000000000 ]
      - [ -0.00000000000000,  0.00000000000000 ]

- q-position: [    0.8750000,    0.8750000,    1.0000000 ]
  distance:    0.0327110
  band:
  - # 1
    frequency:    2.2182034492
    eigenvector:
    - # atom 1
      - [  0.00000000000000,  0.00000000000000 ]
      - [ -1.00000000000000,  0.00000000000000 ]
      - [  0.00000000000000,  0.00000000000000 ]
  - # 2
    frequency:    4.3472305332
    eigenvector:
    - # atom 1
      - [ -0.00000000000000,  0.00000000000000 ]
      - [  0.00000000000000,  0.00000000000000 ]
      - [ -1.00000000000000,  0.00000000000000 ]
  - # 3
    frequency:    2.2182034492
    eigenvector:
    - # atom 1
      - [ -1.00000000000000,  0.00000000000000 ]
      - [  0.00000000000000,  0.00000000000000 ]
      - [  0.00000000000000,  0.00000000000000 ]

- q-position: [    0.8500000,    0.8500000,    1.0000000 ]
  distance:    0.0392532
  band:
  - # 1
    frequency:    2.6302613049
    eigenvector:
    - # atom 1
      - [  0.01570050530518,  0.00000000000000 ]
      - [  0.99987673947000,  0.00000000000000 ]
      - [ -0.00000000000000,  0.00000000000000 ]
  - # 2
    frequency:    5.1157501139
    eigenvector:
    - # atom 1
      - [  0.00000000000000,  0.00000000000000 ]
      - [  0.00000000000000,  0.00000000000000 ]
      - [  1.00000000000000,  0.00000000000000 ]
  - # 3
    frequency:    2.6302613049
    eigenvector:
    - # atom 1
      - [  0.99987673947000,  0.00000000000000 ]
      - [ -0.01570050530518,  0.00000000000000 ]
      - [ -0.00000000000000,  0.00000000000000 ]

- q-position: [    0.8250000,    0.8250000,    1.0000000 ]
  distance:    0.0457954
  band:
  - # 1
    frequency:    3.0255336681
    eigenvector:
    - # atom 1
      - [  0.00000000000000,  0.00000000000000 ]
      - [ -1.00000000000000,  0.00000000000000 ]
      - [ -0.00000000000000,  0.00000000000000 ]
  - # 2
    frequency:    5.8336814114
    eigenvector:
    - # atom 1
      - [ -0.00000000000000,  0.00000000000000 ]
      - [  0.00000000000000,  0.00000000000000 ]
      - [ -1.00000000000000,  0.00000000000000 ]
  - # 3
    frequency:    3.0255336681
    eigenvector:
    - # atom 1
      - [  1.00000000000000,  0.00000000000000 ]
      - [  0.00000000000000,  0.00000000000000 ]
      - [  0.00000000000000,  0.00000000000000 ]

- q-position: [    0.8000000,    0.8000000,    1.0000000 ]
  distance:    0.0523376
  band:
  - # 1
    frequency:    3.4015776579
    eigenvector:
    - # atom 1
      - [ -0.06629618547758,  0.00000000000000 ]
      - [  0.99779998786887,  0.00000000000000 ]
      - [  0.00000000000000,  0.00000000000000 ]
  - # 2
    frequency:    6.4960847367
    eigenvector:
    - # atom 1
      - [  0.00000000000000,  0.00000000000000 ]
      - [ -0.00000000000000,  0.00000000000000 ]
      - [  1.00000000000000,  0.00000000000000 ]
  - # 3
    frequency:    3.4015776579
    eigenvector:
    - # atom 1
      - [  0.99779998786887,  0.00000000000000 ]
      - [  0.06629618547758,  0.00000000000000 ]
      - [ -0.00000000000000,  0.00000000000000 ]

- q-position: [    0.7750000,    0.7750000,    1.0000000 ]
  distance:    0.0588798
  band:
  - # 1
    frequency:    3.7561006503
    eigenvector:
    - # atom 1
      - [  0.08636437488282,  0.00000000000000 ]
      - [  0.99626361709695,  0.00000000000000 ]
      - [ -0.00000000000000,  0.00000000000000 ]
  - # 2
    frequency:    7.0993909727
    eigenvector:
    - # atom 1
      - [  0.00000000000000,  0.00000000000000 ]
      - [  0.00000000000000,  0.00000000000000 ]
      - [  1.00000000000000,  0.00000000000000 ]
  - # 3
    frequency:    3.7561006503
    eigenvector:
    - # atom 1
      - [  0.99626361709695,  0.00000000000000 ]
      - [ -0.08636437488282,  0.00000000000000 ]
      - [ -0.00000000000000,  0.00000000000000 ]

- q-position: [    0.7500000,    0.7500000,    1.0000000 ]
  distance:    0.0654220
  band:
  - # 1
    frequency:    4.0869730500
    eigenvector:
    - # atom 1
      - [  0.00000000000000,  0.00000000000000 ]
      - [ -1.00000000000000,  0.00000000000000 ]
      - [  0.00000000000000,  0.00000000000000 ]
  - # 2
    frequency:    7.6414303976
    eigenvector:
    - # atom 1
      - [ -0.00000000000000,  0.00000000000000 ]
      - [  0.00000000000000,  0.00000000000000 ]
      - [ -1.00000000000000,  0.00000000000000 ]
  - # 3
    frequency:    4.0869730500
    eigenvector:
    - # atom 1
      - [  1.00000000000000,  0.00000000000000 ]
      - [  0.00000000000000,  0.00000000000000 ]
      - [  0.00000000000000,  0.00000000000000 ]

- q-position: [    0.7250000,    0.7250000,    1.0000000 ]
  distance:    0.0719642
  band:
  - # 1
    frequency:    4.3922383818
    eigenvector:
    - # atom 1
      - [ -0.00000000000000,  0.00000000000000 ]
      - [  1.00000000000000,  0.00000000000000 ]
      - [  0.00000000000000,  0.00000000000000 ]
  - # 2
    frequency:    8.1214004788
    eigenvector:
    - # atom 1
      - [  0.00000000000000,  0.00000000000000 ]
      - [ -0.00000000000000,  0.00000000000000 ]
      - [  1.00000000000000,  0.00000000000000 ]
  - # 3
    frequency:    4.3922383818
    eigenvector:
    - # atom 1
      - [  1.00000000000000,  0.00000000000000 ]
      - [  0.00000000000000,  0.00000000000000 ]
      - [  0.00000000000000,  0.00000000000000 ]

- q-position: [    0.7000000,    0.7000000,    1.0000000 ]
  distance:    0.0785064
  band:
  - # 1
    frequency:    4.6701207955
    eigenvector:
    - # atom 1
      - [ -0.00000000000000,  0.00000000000000 ]
      - [  1.00000000000000,  0.00000000000000 ]
      - [  0.00000000000000,  0.00000000000000 ]
  - # 2
    frequency:    8.5397698299
    eigenvector:
    - # atom 1
      - [  0.00000000000000,  0.00000000000000 ]
      - [ -0.00000000000000,  0.00000000000000 ]
      - [  1.00000000000000,  0.00000000000000 ]
  - # 3
    frequency:    4.6701207955
    eigenvector:
    - # atom 1
      - [  1.00000000000000,  0.00000000000000 ]
      - [  0.00000000000000,  0.00000000000000 ]
      - [  0.00000000000000,  0.00000000000000 ]

- q-position: [    0.6750000,    0.6750000,    1.0000000 ]
  distance:    0.0850486
  band:
  - # 1
    frequency:    4.9190301830
    eigenvector:
    - # atom 1
      - [ -0.23676854835802,  0.00000000000000 ]
      - [  0.97156608344900,  0.00000000000000 ]
      - [ -0.00000000000000,  0.00000000000000 ]
  - # 2
    frequency:    8.8981183411
    eigenvector:
    - # atom 1
      - [  0.00000000000000,  0.00000000000000 ]
      - [  0.00000000000000,  0.00000000000000 ]
      - [  1.00000000000000,  0.00000000000000 ]
  - # 3
    frequency:    4.9190301830
    eigenvector:
    - # atom 1
      - [  0.97156608344900,  0.00000000000000 ]
      - [  0.23676854835802,  0.00000000000000 ]
      - [ -0.00000000000000,  0.00000000000000 ]

- q-position: [    0.6500000,    0.6500000,    1.0000000 ]
  distance:    0.0915908
  band:
  - # 1
    frequency:    5.1375651914
    eigenvector:
    - # atom 1
      - [ -0.09322352735418,  0.00000000000000 ]
      - [  0.99564520485344,  0.00000000000000 ]
      - [ -0.00000000000000,  0.00000000000000 ]
  - # 2
    frequency:    9.1989172276
    eigenvector:
    - # atom 1
      - [  0.00000000000000,  0.00000000000000 ]
      - [  0.00000000000000,  0.00000000000000 ]
      - [  1.00000000000000,  0.00000000000000 ]
  - # 3
    frequency:    5.1375651914
    eigenvector:
    - # atom 1
      - [  0.99564520485344,  0.00000000000000 ]
      - [  0.09322352735418,  0.00000000000000 ]
      - [ -0.00000000000000,  0.00000000000000 ]

- q-position: [    0.6250000,    0.6250000,    1.0000000 ]
  distance:    0.0981330
  band:
  - # 1
    frequency:    5.3245144871
    eigenvector:
    - # atom 1
      - [  0.00000000000000,  0.00000000000000 ]
      - [  1.00000000000000,  0.00000000000000 ]
      - [ -0.00000000000000,  0.00000000000000 ]
  - # 2
    frequency:    9.4452573921
    eigenvector:
    - # atom 1
      - [ -0.00000000000000,  0.00000000000000 ]
      - [  0.00000000000000,  0.00000000000000 ]
      - [  1.00000000000000,  0.00000000000000 ]
  - # 3
    frequency:    5.3245144871
    eigenvector:
    - # atom 1
      - [  1.00000000000000,  0.00000000000000 ]
      - [  0.00000000000000,  0.00000000000000 ]
      - [  0.00000000000000,  0.00000000000000 ]

- q-position: [    0.6000000,    0.6000000,    1.0000000 ]
  distance:    0.1046752
  band:
  - # 1
    frequency:    5.4788566715
    eigenvector:
    - # atom 1
      - [  0.00000000000000,  0.00000000000000 ]
      - [ -1.00000000000000,  0.00000000000000 ]
      - [ -0.00000000000000,  0.00000000000000 ]
  - # 2
    frequency:    9.6405398393
    eigenvector:
    - # atom 1
      - [ -0.00000000000000,  0.00000000000000 ]
      - [  0.00000000000000,  0.00000000000000 ]
      - [ -1.00000000000000,  0.00000000000000 ]
  - # 3
    frequency:    5.4788566715
    eigenvector:
    - # atom 1
      - [  1.00000000000000,  0.00000000000000 ]
      - [  0.00000000000000,  0.00000000000000 ]
      - [  0.00000000000000,  0.00000000000000 ]

- q-position: [    0.5750000,    0.5750000,    1.0000000 ]
  distance:    0.1112174
  band:
  - # 1
    frequency:    5.5997592728
    eigenvector:
    - # atom 1
      - [ -0.00000000000000,  0.00000000000000 ]
      - [  1.00000000000000,  0.00000000000000 ]
      - [  0.00000000000000,  0.00000000000000 ]
  - # 2
    frequency:    9.7881473777
    eigenvector:
    - # atom 1
      - [  0.00000000000000,  0.00000000000000 ]
      - [  0.00000000000000,  0.00000000000000 ]
      - [  1.00000000000000,  0.00000000000000 ]
  - # 3
    frequency:    5.5997592728
    eigenvector:
    - # atom 1
      - [  1.00000000000000,  0.00000000000000 ]
      - [  0.00000000000000,  0.00000000000000 ]
      - [  0.00000000000000,  0.00000000000000 ]

- q-position: [    0.5500000,    0.5500000,    1.0000000 ]
  distance:    0.1177596
  band:
  - # 1
    frequency:    5.6865772320
    eigenvector:
    - # atom 1
      - [  0.00000000000000,  0.00000000000000 ]
      - [ -1.00000000000000,  0.00000000000000 ]
      - [  0.00000000000000,  0.00000000000000 ]
  - # 2
    frequency:    9.8911216123
    eigenvector:
    - # atom 1
      - [ -0.00000000000000,  0.00000000000000 ]
      - [ -0.00000000000000,  0.00000000000000 ]
      - [ -1.00000000000000,  0.00000000000000 ]
  - # 3
    frequency:    5.6865772320
    eigenvector:
    - # atom 1
      - [  1.00000000000000,  0.00000000000000 ]
      - [  0.00000000000000,  0.00000000000000 ]
      - [  0.00000000000000,  0.00000000000000 ]

- q-position: [    0.5250000,    0.5250000,    1.0000000 ]
  distance:    0.1243018
  band:
  - # 1
    frequency:    5.7388512682
    eigenvector:
    - # atom 1
      - [  0.00000000000000,  0.00000000000000 ]
      - [ -1.00000000000000,  0.00000000000000 ]
      - [  0.00000000000000,  0.00000000000000 ]
  - # 2
    frequency:    9.9518721408
    eigenvector:
    - # atom 1
      - [ -0.00000000000000,  0.00000000000000 ]
      - [ -0.00000000000000,  0.00000000000000 ]
      - [ -1.00000000000000,  0.00000000000000 ]
  - # 3
    frequency:    5.7388512682
    eigenvector:
    - # atom 1
      - [  1.00000000000000,  0.00000000000000 ]
      - [  0.00000000000000,  0.00000000000000 ]
      - [  0.00000000000000,  0.00000000000000 ]

- q-position: [    0.5000000,    0.5000000,    1.0000000 ]
  distance:    0.1308440
  band:
  - # 1
    frequency:    5.7563064567
    eigenvector:
    - # atom 1
      - [  0.00000000000000,  0.00000000000000 ]
      - [  0.99931389679752, -0.03703695002766 ]
      - [  0.00000000000000,  0.00000000000000 ]
  - # 2
    frequency:    9.9719448102
    eigenvector:
    - # atom 1
      - [ -0.00000000000000,  0.00000000000000 ]
      - [  0.00000000000000, -0.00000000000000 ]
      - [  0.00000000000000, -1.00000000000000 ]
  - # 3
    frequency:    5.7563064567
    eigenvector:
    - # atom 1
      - [  1.00000000000000,  0.00000000000000 ]
      - [  0.00000000000000,  0.00000000000000 ]
      - [  0.00000000000000,  0.00000000000000 ]

- q-position: [    0.5000000,    0.5000000,    1.0000000 ]
  distance:    0.1308440
  band:
  - # 1
    frequency:    5.7563064567
    eigenvector:
    - # atom 1
      - [  1.00000000000000,  0.00000000000000 ]
      - [  0.00000000000000,  0.00000000000000 ]
      - [  0.00000000000000,  0.00000000000000 ]
  - # 2
    frequency:    5.7563064567
    eigenvector:
    - # atom 1
      - [  0.00000000000000,  0.00000000000000 ]
      - [  0.99931389679752, -0.03703695002766 ]
      - [  0.00000000000000,  0.00000000000000 ]
  - # 3
    frequency:    9.9719448102
    eigenvector:
    - # atom 1
      - [ -0.00000000000000,  0.00000000000000 ]
      - [  0.00000000000000, -0.00000000000000 ]
      - [  0.00000000000000, -1.00000000000000 ]

- q-position: [    0.4937500,    0.4937500,    0.9875000 ]
  distance:    0.1331570
  band:
  - # 1
    frequency:    5.7564610484
    eigenvector:
    - # atom 1
      - [ -0.70710678118658,  0.00000000000000 ]
      - [  0.70710678118651,  0.00000000000000 ]
      - [  0.00000000000000,  0.00000000000000 ]
  - # 2
    frequency:    5.7617147961
    eigenvector:
    - # atom 1
      - [  0.70710678118651,  0.00000000000000 ]
      - [  0.70710678118658,  0.00000000000000 ]
      - [  0.00000000000000,  0.00000000000000 ]
  - # 3
    frequency:    9.9688061637
    eigenvector:
    - # atom 1
      - [  0.00000000000000,  0.00000000000000 ]
      - [  0.00000000000000,  0.00000000000000 ]
      - [  1.00000000000000,  0.00000000000000 ]

- q-position: [    0.4875000,    0.4875000,    0.9750000 ]
  distance:    0.1354701
  band:
  - # 1
    frequency:    5.7569028235
    eigenvector:
    - # atom 1
      - [ -0.70710678118658,  0.00000000000000 ]
      - [  0.70710678118652,  0.00000000000000 ]
      - [  0.00000000000000,  0.00000000000000 ]
  - # 2
    frequency:    5.7778552589
    eigenvector:
    - # atom 1
      - [  0.70710678118652,  0.00000000000000 ]
      - [  0.70710678118658,  0.00000000000000 ]
      - [  0.00000000000000,  0.00000000000000 ]
  - # 3
    frequency:    9.9594001214
    eigenvector:
    - # atom 1
      - [  0.00000000000000,  0.00000000000000 ]
      - [  0.00000000000000,  0.00000000000000 ]
      - [  1.00000000000000,  0.00000000000000 ]

- q-position: [    0.4812500,    0.4812500,    0.9625000 ]
  distance:    0.1377831
  band:
  - # 1
    frequency:    5.7575663651
    eigenvector:
    - # atom 1
      - [ -0.70710678118656,  0.00000000000000 ]
      - [  0.70710678118653,  0.00000000000000 ]
      - [  0.00000000000000,  0.00000000000000 ]
  - # 2
    frequency:    5.8044772838
    eigenvector:
    - # atom 1
      - [  0.70710678118653,  0.00000000000000 ]
      - [  0.70710678118656,  0.00000000000000 ]
      - [  0.00000000000000,  0.00000000000000 ]
  - # 3
    frequency:    9.9437562840
    eigenvector:
    - # atom 1
      - [  0.00000000000000,  0.00000000000000 ]
      - [  0.00000000000000,  0.00000000000000 ]
      - [  1.00000000000000,  0.00000000000000 ]

- q-position: [    0.4750000,    0.4750000,    0.9500000 ]
  distance:    0.1400961
  band:
  - # 1
    frequency:    5.7583445701
    eigenvector:
    - # atom 1
      - [  0.70710678118655,  0.00000000000000 ]
      - [ -0.70710678118655,  0.00000000000000 ]
      - [  0.00000000000000,  0.00000000000000 ]
  - # 2
    frequency:    5.8411733654
    eigenvector:
    - # atom 1
      - [ -0.70710678118655,  0.00000000000000 ]
      - [ -0.70710678118655,  0.00000000000000 ]
      - [ -0.00000000000000,  0.00000000000000 ]
  - # 3
    frequency:    9.9219236846
    eigenvector:
    - # atom 1
      - [  0.00000000000000,  0.00000000000000 ]
      - [  0.00000000000000,  0.00000000000000 ]
      - [  1.00000000000000,  0.00000000000000 ]

- q-position: [    0.4687500,    0.4687500,    0.9375000 ]
  distance:    0.1424091
  band:
  - # 1
    frequency:    5.7590914658
    eigenvector:
    - # atom 1
      - [ -0.70710678118655,  0.00000000000000 ]
      - [  0.70710678118655,  0.00000000000000 ]
      - [  0.00000000000000,  0.00000000000000 ]
  - # 2
    frequency:    5.8873933368
    eigenvector:
    - # atom 1
      - [  0.70710678118655,  0.00000000000000 ]
      - [  0.70710678118655,  0.00000000000000 ]
      - [  0.00000000000000,  0.00000000000000 ]
  - # 3
    frequency:    9.8939703395
    eigenvector:
    - # atom 1
      - [  0.00000000000000,  0.00000000000000 ]
      - [  0.00000000000000,  0.00000000000000 ]
      - [  1.00000000000000,  0.00000000000000 ]

- q-position: [    0.4625000,    0.4625000,    0.9250000 ]
  distance:    0.1447221
  band:
  - # 1
    frequency:    5.7596260128
    eigenvector:
    - # atom 1
      - [ -0.70710678118655,  0.00000000000000 ]
      - [  0.70710678118654,  0.00000000000000 ]
      - [  0.00000000000000,  0.00000000000000 ]
  - # 2
    frequency:    5.9424627744
    eigenvector:
    - # atom 1
      - [  0.70710678118654,  0.00000000000000 ]
      - [  0.70710678118655,  0.00000000000000 ]
      - [  0.00000000000000,  0.00000000000000 ]
  - # 3
    frequency:    9.8599826260
    eigenvector:
    - # atom 1
      - [  0.00000000000000,  0.00000000000000 ]
      - [  0.00000000000000,  0.00000000000000 ]
      - [  1.00000000000000,  0.00000000000000 ]

- q-position: [    0.4562500,    0.4562500,    0.9125000 ]
  distance:    0.1470351
  band:
  - # 1
    frequency:    5.7597367677
    eigenvector:
    - # atom 1
      - [ -0.70710678118655,  0.00000000000000 ]
      - [  0.70710678118655,  0.00000000000000 ]
      - [  0.00000000000000,  0.00000000000000 ]
  - # 2
    frequency:    6.0056042066
    eigenvector:
    - # atom 1
      - [  0.70710678118655,  0.00000000000000 ]
      - [  0.70710678118655,  0.00000000000000 ]
      - [  0.00000000000000,  0.00000000000000 ]
  - # 3
    frequency:    9.8200644936
    eigenvector:
    - # atom 1
      - [  0.00000000000000,  0.00000000000000 ]
      - [  0.00000000000000,  0.00000000000000 ]
      - [  1.00000000000000,  0.00000000000000 ]

- q-position: [    0.4500000,    0.4500000,    0.9000000 ]
  distance:    0.1493482
  band:
  - # 1
    frequency:    5.7591872524
    eigenvector:
    - # atom 1
      - [  0.70710678118655,  0.00000000000000 ]
      - [ -0.70710678118655,  0.00000000000000 ]
      - [  0.00000000000000,  0.00000000000000 ]
  - # 2
    frequency:    6.0759597539
    eigenvector:
    - # atom 1
      - [ -0.70710678118655,  0.00000000000000 ]
      - [ -0.70710678118655,  0.00000000000000 ]
      - [ -0.00000000000000,  0.00000000000000 ]
  - # 3
    frequency:    9.7743365155
    eigenvector:
    - # atom 1
      - [  0.00000000000000,  0.00000000000000 ]
      - [  0.00000000000000,  0.00000000000000 ]
      - [  1.00000000000000,  0.00000000000000 ]

- q-position: [    0.4437500,    0.4437500,    0.8875000 ]
  distance:    0.1516612
  band:
  - # 1
    frequency:    5.7577218621
    eigenvector:
    - # atom 1
      - [ -0.70710678118655,  0.00000000000000 ]
      - [  0.70710678118655,  0.00000000000000 ]
      - [  0.00000000000000,  0.00000000000000 ]
  - # 2
    frequency:    6.1526139224
    eigenvector:
    - # atom 1
      - [  0.70710678118655,  0.00000000000000 ]
      - [  0.70710678118655,  0.00000000000000 ]
      - [  0.00000000000000,  0.00000000000000 ]
  - # 3
    frequency:    9.7229347918
    eigenvector:
    - # atom 1
      - [  0.00000000000000,  0.00000000000000 ]
      - [  0.00000000000000,  0.00000000000000 ]
      - [  1.00000000000000,  0.00000000000000 ]

- q-position: [    0.4375000,    0.4375000,    0.8750000 ]
  distance:    0.1539742
  band:
  - # 1
    frequency:    5.7550721386
    eigenvector:
    - # atom 1
      - [ -0.70710678118655,  0.00000000000000 ]
      - [  0.70710678118655,  0.00000000000000 ]
      - [  0.00000000000000,  0.00000000000000 ]
  - # 2
    frequency:    6.2346154702
    eigenvector:
    - # atom 1
      - [  0.70710678118655,  0.00000000000000 ]
      - [  0.70710678118655,  0.00000000000000 ]
      - [  0.00000000000000,  0.00000000000000 ]
  - # 3
    frequency:    9.6660097158
    eigenvector:
    - # atom 1
      - [  0.00000000000000,  0.00000000000000 ]
      - [  0.00000000000000,  0.00000000000000 ]
      - [  1.00000000000000,  0.00000000000000 ]

- q-position: [    0.4312500,    0.4312500,    0.8625000 ]
  distance:    0.1562872
  band:
  - # 1
    frequency:    5.7509632332
    eigenvector:
    - # atom 1
      - [ -0.70710678118655,  0.00000000000000 ]
      - [  0.70710678118655,  0.00000000000000 ]
      - [  0.00000000000000,  0.00000000000000 ]
  - # 2
    frequency:    6.3209975236
    eigenvector:
    - # atom 1
      - [  0.70710678118655,  0.00000000000000 ]
      - [  0.70710678118655,  0.00000000000000 ]
      - [  0.00000000000000,  0.00000000000000 ]
  - # 3
    frequency:    9.6037246152
    eigenvector:
    - # atom 1
      - [  0.00000000000000,  0.00000000000000 ]
      - [  0.00000000000000,  0.00000000000000 ]
      - [  1.00000000000000,  0.00000000000000 ]

- q-position: [    0.4250000,    0.4250000,    0.8500000 ]
  distance:    0.1586002
  band:
  - # 1
    frequency:    5.7451203938
    eigenvector:
    - # atom 1
      - [ -0.70710678118655,  0.00000000000000 ]
      - [  0.70710678118655,  0.00000000000000 ]
      - [  0.00000000000000,  0.00000000000000 ]
  - # 2
    frequency:    6.4107953978
    eigenvector:
    - # atom 1
      - [  0.70710678118655,  0.00000000000000 ]
      - [  0.70710678118655,  0.00000000000000 ]
      - [  0.00000000000000,  0.00000000000000 ]
  - # 3
    frequency:    9.5362542848
    eigenvector:
    - # atom 1
      - [  0.00000000000000,  0.00000000000000 ]
      - [  0.00000000000000,  0.00000000000000 ]
      - [  1.00000000000000,  0.00000000000000 ]

- q-position: [    0.4187500,    0.4187500,    0.8375000 ]
  distance:    0.1609133
  band:
  - # 1
    frequency:    5.7372753203
    eigenvector:
    - # atom 1
      - [ -0.70710678118655,  0.00000000000000 ]
      - [  0.70710678118655,  0.00000000000000 ]
      - [  0.00000000000000,  0.00000000000000 ]
  - # 2
    frequency:    6.5030618245
    eigenvector:
    - # atom 1
      - [  0.70710678118655,  0.00000000000000 ]
      - [  0.70710678118655,  0.00000000000000 ]
      - [  0.00000000000000,  0.00000000000000 ]
  - # 3
    frequency:    9.4637834265
    eigenvector:
    - # atom 1
      - [  0.00000000000000,  0.00000000000000 ]
      - [  0.00000000000000,  0.00000000000000 ]
      - [  1.00000000000000,  0.00000000000000 ]

- q-position: [    0.4125000,    0.4125000,    0.8250000 ]
  distance:    0.1632263
  band:
  - # 1
    frequency:    5.7271722487
    eigenvector:
    - # atom 1
      - [ -0.70710678118655,  0.00000000000000 ]
      - [  0.70710678118655,  0.00000000000000 ]
      - [  0.00000000000000,  0.00000000000000 ]
  - # 2
    frequency:    6.5968795037
    eigenvector:
    - # atom 1
      - [  0.70710678118655,  0.00000000000000 ]
      - [  0.70710678118655,  0.00000000000000 ]
      - [  0.00000000000000,  0.00000000000000 ]
  - # 3
    frequency:    9.3865050130
    eigenvector:
    - # atom 1
      - [  0.00000000000000,  0.00000000000000 ]
      - [  0.00000000000000,  0.00000000000000 ]
      - [  1.00000000000000,  0.00000000000000 ]

- q-position: [    0.4062500,    0.4062500,    0.8125000 ]
  distance:    0.1655393
  band:
  - # 1
    frequency:    5.7145736445
    eigenvector:
    - # atom 1
      - [ -0.70710678118655,  0.00000000000000 ]
      - [  0.70710678118655,  0.00000000000000 ]
      - [  0.00000000000000,  0.00000000000000 ]
  - # 2
    frequency:    6.6913710535
    eigenvector:
    - # atom 1
      - [  0.70710678118655,  0.00000000000000 ]
      - [  0.70710678118655,  0.00000000000000 ]
      - [  0.00000000000000,  0.00000000000000 ]
  - # 3
    frequency:    9.3046185970
    eigenvector:
    - # atom 1
      - [  0.00000000000000,  0.00000000000000 ]
      - [  0.00000000000000,  0.00000000000000 ]
      - [  1.00000000000000,  0.00000000000000 ]

- q-position: [    0.4000000,    0.4000000,    0.8000000 ]
  distance:    0.1678523
  band:
  - # 1
    frequency:    5.6992653999
    eigenvector:
    - # atom 1
      - [ -0.70710678118655,  0.00000000000000 ]
      - [  0.70710678118655,  0.00000000000000 ]
      - [  0.00000000000000,  0.00000000000000 ]
  - # 2
    frequency:    6.7857065403
    eigenvector:
    - # atom 1
      - [  0.70710678118655,  0.00000000000000 ]
      - [  0.70710678118655,  0.00000000000000 ]
      - [  0.00000000000000,  0.00000000000000 ]
  - # 3
    frequency:    9.2183285828
    eigenvector:
    - # atom 1
      - [  0.00000000000000,  0.00000000000000 ]
      - [  0.00000000000000,  0.00000000000000 ]
      - [  1.00000000000000,  0.00000000000000 ]

- q-position: [    0.3937500,    0.3937500,    0.7875000 ]
  distance:    0.1701653
  band:
  - # 1
    frequency:    5.6810614531
    eigenvector:
    - # atom 1
      - [  0.70710678118655,  0.00000000000000 ]
      - [ -0.70710678118655,  0.00000000000000 ]
      - [  0.00000000000000,  0.00000000000000 ]
  - # 2
    frequency:    6.8791088343
    eigenvector:
    - # atom 1
      - [ -0.70710678118655,  0.00000000000000 ]
      - [ -0.70710678118655,  0.00000000000000 ]
      - [ -0.00000000000000,  0.00000000000000 ]
  - # 3
    frequency:    9.1278424838
    eigenvector:
    - # atom 1
      - [  0.00000000000000,  0.00000000000000 ]
      - [  0.00000000000000,  0.00000000000000 ]
      - [  1.00000000000000,  0.00000000000000 ]

- q-position: [    0.3875000,    0.3875000,    0.7750000 ]
  distance:    0.1724783
  band:
  - # 1
    frequency:    5.6598077589
    eigenvector:
    - # atom 1