64   
1    

1    
  0.0100000000000000   0.0000000000000000   0.0000000000000000
  -0.1319835200    0.0000000000    0.0000000000
   0.0001690400    0.0000000000    0.0000000000
   0.0004515900    0.0000000000    0.0000000000
  -0.0000497900    0.0000000000    0.0000000000
   0.0004515900    0.0000000000    0.0000000000
  -0.0000497900    0.0000000000    0.0000000000
  -0.0039147600    0.0000000000    0.0000000000
   0.0001958200    0.0000000000    0.0000000000
  -0.0042919800    0.0009431700    0.0009431700
  -0.0000242800    0.0000774900    0.0000774900
  -0.0042802600    0.0009309800   -0.0009309800
  -0.0000215900    0.0000782300   -0.0000782300
  -0.0042802600   -0.0009309800    0.0009309800
  -0.0000215900   -0.0000782300    0.0000782300
  -0.0042919800   -0.0009431700   -0.0009431700
  -0.0000242800   -0.0000774900   -0.0000774900
   0.0019442600   -0.0009318500    0.0019046100
   0.0019618300   -0.0009426200   -0.0019189600
   0.0003419200   -0.0000777600   -0.0006176900
   0.0003422100   -0.0000776100    0.0006160800
   0.0019442600    0.0009318500   -0.0019046100
   0.0019618300    0.0009426200    0.0019189600
   0.0003419200    0.0000777600    0.0006176900
   0.0003422100    0.0000776100   -0.0006160800
   0.0019442600    0.0019046100   -0.0009318500
   0.0019618300   -0.0019189600   -0.0009426200
   0.0019442600   -0.0019046100    0.0009318500
   0.0019618300    0.0019189600    0.0009426200
   0.0003419200   -0.0006176900   -0.0000777600
   0.0003422100    0.0006160800   -0.0000776100
   0.0003419200    0.0006176900    0.0000777600
   0.0003422100   -0.0006160800    0.0000776100
  -0.0001660600    0.0002433100    0.0002433100
   0.0020893900    0.0002318900    0.0002318900
   0.0002158200    0.0002284300    0.0001968400
  -0.0005006900    0.0004063100    0.0003092000
   0.0002158200    0.0001968400    0.0002284300
  -0.0005006900    0.0003092000    0.0004063100
  -0.0000734800    0.0003077000    0.0003077000
   0.0322677200    0.0223823100    0.0223823100
  -0.0000734800   -0.0003077000   -0.0003077000
   0.0322677200   -0.0223823100   -0.0223823100
   0.0002158200   -0.0001968400   -0.0002284300
  -0.0005006900   -0.0003092000   -0.0004063100
   0.0002158200   -0.0002284300   -0.0001968400
  -0.0005006900   -0.0004063100   -0.0003092000
  -0.0001660600   -0.0002433100   -0.0002433100
   0.0020893900   -0.0002318900   -0.0002318900
  -0.0004955400   -0.0003052500    0.0004099700
   0.0002208100   -0.0002009500    0.0002344900
   0.0319621200   -0.0217924500    0.0217924500
  -0.0000736200   -0.0003069400    0.0003069400
   0.0020815100   -0.0002308800    0.0002308800
  -0.0001658000   -0.0002423900    0.0002423900
  -0.0004955400   -0.0004099700    0.0003052500
   0.0002208100   -0.0002344900    0.0002009500
  -0.0004955400    0.0004099700   -0.0003052500
   0.0002208100    0.0002344900   -0.0002009500
   0.0020815100    0.0002308800   -0.0002308800
  -0.0001658000    0.0002423900   -0.0002423900
   0.0319621200    0.0217924500   -0.0217924500
  -0.0000736200    0.0003069400   -0.0003069400
  -0.0004955400    0.0003052500   -0.0004099700
   0.0002208100    0.0002009500   -0.0002344900
