phonopy:
  version: "2.18.0"
  calculator: lammps
  frequency_unit_conversion_factor: 15.633302
  symmetry_tolerance: 1.00000e-05
  configuration:
    cell_filename: "lammps_structure_Ti"
    create_displacements: ".true."
    dim: "4 4 3"
    calculator: "lammps"

physical_unit:
  atomic_mass: "AMU"
  length: "angstrom"
  force_constants: "eV/angstrom^2"

space_group:
  type: "P6_3/mmc"
  number: 194
  Hall_symbol: "-P 6c 2c"

supercell_matrix:
- [   4,   0,   0 ]
- [   0,   4,   0 ]
- [   0,   0,   3 ]

primitive_cell:
  lattice:
  - [     2.923479689273095,     0.000000000000000,     0.000000000000000 ] # a
  - [    -1.461739844636547,     2.531807678358337,     0.000000000000000 ] # b
  - [     0.000000000000000,     0.000000000000000,     4.624022835916574 ] # c
  points:
  - symbol: Ti # 1
    coordinates: [  0.333333333333334,  0.666666666666667,  0.750000000000000 ]
    mass: 47.867000
  - symbol: Ti # 2
    coordinates: [  0.666666666666667,  0.333333333333333,  0.250000000000000 ]
    mass: 47.867000
  reciprocal_lattice: # without 2pi
  - [     0.342058131503094,     0.197487354301812,     0.000000000000000 ] # a*
  - [     0.000000000000000,     0.394974708603623,     0.000000000000000 ] # b*
  - [     0.000000000000000,     0.000000000000000,     0.216261907755432 ] # c*

unit_cell:
  lattice:
  - [     2.923479689273095,     0.000000000000000,     0.000000000000000 ] # a
  - [    -1.461739844636547,     2.531807678358337,     0.000000000000000 ] # b
  - [     0.000000000000000,     0.000000000000000,     4.624022835916574 ] # c
  points:
  - symbol: Ti # 1
    coordinates: [  0.333333333333334,  0.666666666666667,  0.750000000000000 ]
    mass: 47.867000
    reduced_to: 1
  - symbol: Ti # 2
    coordinates: [  0.666666666666667,  0.333333333333333,  0.250000000000000 ]
    mass: 47.867000
    reduced_to: 2

supercell:
  lattice:
  - [    11.693918757092380,     0.000000000000000,     0.000000000000000 ] # a
  - [    -5.846959378546188,    10.127230713433349,     0.000000000000000 ] # b
  - [     0.000000000000000,     0.000000000000000,    13.872068507749724 ] # c
  points:
  - symbol: Ti # 1
    coordinates: [  0.083333333333333,  0.166666666666667,  0.250000000000000 ]
    mass: 47.867000
    reduced_to: 1
  - symbol: Ti # 2
    coordinates: [  0.333333333333333,  0.166666666666667,  0.250000000000000 ]
    mass: 47.867000
    reduced_to: 1
  - symbol: Ti # 3
    coordinates: [  0.583333333333333,  0.166666666666667,  0.250000000000000 ]
    mass: 47.867000
    reduced_to: 1
  - symbol: Ti # 4
    coordinates: [  0.833333333333333,  0.166666666666667,  0.250000000000000 ]
    mass: 47.867000
    reduced_to: 1
  - symbol: Ti # 5
    coordinates: [  0.083333333333333,  0.416666666666667,  0.250000000000000 ]
    mass: 47.867000
    reduced_to: 1
  - symbol: Ti # 6
    coordinates: [  0.333333333333333,  0.416666666666667,  0.250000000000000 ]
    mass: 47.867000
    reduced_to: 1
  - symbol: Ti # 7
    coordinates: [  0.583333333333333,  0.416666666666667,  0.250000000000000 ]
    mass: 47.867000
    reduced_to: 1
  - symbol: Ti # 8
    coordinates: [  0.833333333333333,  0.416666666666667,  0.250000000000000 ]
    mass: 47.867000
    reduced_to: 1
  - symbol: Ti # 9
    coordinates: [  0.083333333333333,  0.666666666666667,  0.250000000000000 ]
    mass: 47.867000
    reduced_to: 1
  - symbol: Ti # 10
    coordinates: [  0.333333333333333,  0.666666666666667,  0.250000000000000 ]
    mass: 47.867000
    reduced_to: 1
  - symbol: Ti # 11
    coordinates: [  0.583333333333333,  0.666666666666667,  0.250000000000000 ]
    mass: 47.867000
    reduced_to: 1
  - symbol: Ti # 12
    coordinates: [  0.833333333333333,  0.666666666666667,  0.250000000000000 ]
    mass: 47.867000
    reduced_to: 1
  - symbol: Ti # 13
    coordinates: [  0.083333333333333,  0.916666666666667,  0.250000000000000 ]
    mass: 47.867000
    reduced_to: 1
  - symbol: Ti # 14
    coordinates: [  0.333333333333333,  0.916666666666667,  0.250000000000000 ]
    mass: 47.867000
    reduced_to: 1
  - symbol: Ti # 15
    coordinates: [  0.583333333333333,  0.916666666666667,  0.250000000000000 ]
    mass: 47.867000
    reduced_to: 1
  - symbol: Ti # 16
    coordinates: [  0.833333333333333,  0.916666666666667,  0.250000000000000 ]
    mass: 47.867000
    reduced_to: 1
  - symbol: Ti # 17
    coordinates: [  0.083333333333333,  0.166666666666667,  0.583333333333333 ]
    mass: 47.867000
    reduced_to: 1
  - symbol: Ti # 18
    coordinates: [  0.333333333333333,  0.166666666666667,  0.583333333333333 ]
    mass: 47.867000
    reduced_to: 1
  - symbol: Ti # 19
    coordinates: [  0.583333333333333,  0.166666666666667,  0.583333333333333 ]
    mass: 47.867000
    reduced_to: 1
  - symbol: Ti # 20
    coordinates: [  0.833333333333333,  0.166666666666667,  0.583333333333333 ]
    mass: 47.867000
    reduced_to: 1
  - symbol: Ti # 21
    coordinates: [  0.083333333333333,  0.416666666666667,  0.583333333333333 ]
    mass: 47.867000
    reduced_to: 1
  - symbol: Ti # 22
    coordinates: [  0.333333333333333,  0.416666666666667,  0.583333333333333 ]
    mass: 47.867000
    reduced_to: 1
  - symbol: Ti # 23
    coordinates: [  0.583333333333333,  0.416666666666667,  0.583333333333333 ]
    mass: 47.867000
    reduced_to: 1
  - symbol: Ti # 24
    coordinates: [  0.833333333333333,  0.416666666666667,  0.583333333333333 ]
    mass: 47.867000
    reduced_to: 1
  - symbol: Ti # 25
    coordinates: [  0.083333333333333,  0.666666666666667,  0.583333333333333 ]
    mass: 47.867000
    reduced_to: 1
  - symbol: Ti # 26
    coordinates: [  0.333333333333333,  0.666666666666667,  0.583333333333333 ]
    mass: 47.867000
    reduced_to: 1
  - symbol: Ti # 27
    coordinates: [  0.583333333333333,  0.666666666666667,  0.583333333333333 ]
    mass: 47.867000
    reduced_to: 1
  - symbol: Ti # 28
    coordinates: [  0.833333333333333,  0.666666666666667,  0.583333333333333 ]
    mass: 47.867000
    reduced_to: 1
  - symbol: Ti # 29
    coordinates: [  0.083333333333333,  0.916666666666667,  0.583333333333333 ]
    mass: 47.867000
    reduced_to: 1
  - symbol: Ti # 30
    coordinates: [  0.333333333333333,  0.916666666666667,  0.583333333333333 ]
    mass: 47.867000
    reduced_to: 1
  - symbol: Ti # 31
    coordinates: [  0.583333333333333,  0.916666666666667,  0.583333333333333 ]
    mass: 47.867000
    reduced_to: 1
  - symbol: Ti # 32
    coordinates: [  0.833333333333333,  0.916666666666667,  0.583333333333333 ]
    mass: 47.867000
    reduced_to: 1
  - symbol: Ti # 33
    coordinates: [  0.083333333333333,  0.166666666666667,  0.916666666666667 ]
    mass: 47.867000
    reduced_to: 1
  - symbol: Ti # 34
    coordinates: [  0.333333333333333,  0.166666666666667,  0.916666666666667 ]
    mass: 47.867000
    reduced_to: 1
  - symbol: Ti # 35
    coordinates: [  0.583333333333333,  0.166666666666667,  0.916666666666667 ]
    mass: 47.867000
    reduced_to: 1
  - symbol: Ti # 36
    coordinates: [  0.833333333333333,  0.166666666666667,  0.916666666666667 ]
    mass: 47.867000
    reduced_to: 1
  - symbol: Ti # 37
    coordinates: [  0.083333333333333,  0.416666666666667,  0.916666666666667 ]
    mass: 47.867000
    reduced_to: 1
  - symbol: Ti # 38
    coordinates: [  0.333333333333333,  0.416666666666667,  0.916666666666667 ]
    mass: 47.867000
    reduced_to: 1
  - symbol: Ti # 39
    coordinates: [  0.583333333333333,  0.416666666666667,  0.916666666666667 ]
    mass: 47.867000
    reduced_to: 1
  - symbol: Ti # 40
    coordinates: [  0.833333333333333,  0.416666666666667,  0.916666666666667 ]
    mass: 47.867000
    reduced_to: 1
  - symbol: Ti # 41
    coordinates: [  0.083333333333333,  0.666666666666667,  0.916666666666667 ]
    mass: 47.867000
    reduced_to: 1
  - symbol: Ti # 42
    coordinates: [  0.333333333333333,  0.666666666666667,  0.916666666666667 ]
    mass: 47.867000
    reduced_to: 1
  - symbol: Ti # 43
    coordinates: [  0.583333333333333,  0.666666666666667,  0.916666666666667 ]
    mass: 47.867000
    reduced_to: 1
  - symbol: Ti # 44
    coordinates: [  0.833333333333333,  0.666666666666667,  0.916666666666667 ]
    mass: 47.867000
    reduced_to: 1
  - symbol: Ti # 45
    coordinates: [  0.083333333333333,  0.916666666666667,  0.916666666666667 ]
    mass: 47.867000
    reduced_to: 1
  - symbol: Ti # 46
    coordinates: [  0.333333333333333,  0.916666666666667,  0.916666666666667 ]
    mass: 47.867000
    reduced_to: 1
  - symbol: Ti # 47
    coordinates: [  0.583333333333333,  0.916666666666667,  0.916666666666667 ]
    mass: 47.867000
    reduced_to: 1
  - symbol: Ti # 48
    coordinates: [  0.833333333333333,  0.916666666666667,  0.916666666666667 ]
    mass: 47.867000
    reduced_to: 1
  - symbol: Ti # 49
    coordinates: [  0.166666666666667,  0.083333333333333,  0.083333333333333 ]
    mass: 47.867000
    reduced_to: 49
  - symbol: Ti # 50
    coordinates: [  0.416666666666667,  0.083333333333333,  0.083333333333333 ]
    mass: 47.867000
    reduced_to: 49
  - symbol: Ti # 51
    coordinates: [  0.666666666666667,  0.083333333333333,  0.083333333333333 ]
    mass: 47.867000
    reduced_to: 49
  - symbol: Ti # 52
    coordinates: [  0.916666666666667,  0.083333333333333,  0.083333333333333 ]
    mass: 47.867000
    reduced_to: 49
  - symbol: Ti # 53
    coordinates: [  0.166666666666667,  0.333333333333333,  0.083333333333333 ]
    mass: 47.867000
    reduced_to: 49
  - symbol: Ti # 54
    coordinates: [  0.416666666666667,  0.333333333333333,  0.083333333333333 ]
    mass: 47.867000
    reduced_to: 49
  - symbol: Ti # 55
    coordinates: [  0.666666666666667,  0.333333333333333,  0.083333333333333 ]
    mass: 47.867000
    reduced_to: 49
  - symbol: Ti # 56
    coordinates: [  0.916666666666667,  0.333333333333333,  0.083333333333333 ]
    mass: 47.867000
    reduced_to: 49
  - symbol: Ti # 57
    coordinates: [  0.166666666666667,  0.583333333333333,  0.083333333333333 ]
    mass: 47.867000
    reduced_to: 49
  - symbol: Ti # 58
    coordinates: [  0.416666666666667,  0.583333333333333,  0.083333333333333 ]
    mass: 47.867000
    reduced_to: 49
  - symbol: Ti # 59
    coordinates: [  0.666666666666667,  0.583333333333333,  0.083333333333333 ]
    mass: 47.867000
    reduced_to: 49
  - symbol: Ti # 60
    coordinates: [  0.916666666666667,  0.583333333333333,  0.083333333333333 ]
    mass: 47.867000
    reduced_to: 49
  - symbol: Ti # 61
    coordinates: [  0.166666666666667,  0.833333333333333,  0.083333333333333 ]
    mass: 47.867000
    reduced_to: 49
  - symbol: Ti # 62
    coordinates: [  0.416666666666667,  0.833333333333333,  0.083333333333333 ]
    mass: 47.867000
    reduced_to: 49
  - symbol: Ti # 63
    coordinates: [  0.666666666666667,  0.833333333333333,  0.083333333333333 ]
    mass: 47.867000
    reduced_to: 49
  - symbol: Ti # 64
    coordinates: [  0.916666666666667,  0.833333333333333,  0.083333333333333 ]
    mass: 47.867000
    reduced_to: 49
  - symbol: Ti # 65
    coordinates: [  0.166666666666667,  0.083333333333333,  0.416666666666667 ]
    mass: 47.867000
    reduced_to: 49
  - symbol: Ti # 66
    coordinates: [  0.416666666666667,  0.083333333333333,  0.416666666666667 ]
    mass: 47.867000
    reduced_to: 49
  - symbol: Ti # 67
    coordinates: [  0.666666666666667,  0.083333333333333,  0.416666666666667 ]
    mass: 47.867000
    reduced_to: 49
  - symbol: Ti # 68
    coordinates: [  0.916666666666667,  0.083333333333333,  0.416666666666667 ]
    mass: 47.867000
    reduced_to: 49
  - symbol: Ti # 69
    coordinates: [  0.166666666666667,  0.333333333333333,  0.416666666666667 ]
    mass: 47.867000
    reduced_to: 49
  - symbol: Ti # 70
    coordinates: [  0.416666666666667,  0.333333333333333,  0.416666666666667 ]
    mass: 47.867000
    reduced_to: 49
  - symbol: Ti # 71
    coordinates: [  0.666666666666667,  0.333333333333333,  0.416666666666667 ]
    mass: 47.867000
    reduced_to: 49
  - symbol: Ti # 72
    coordinates: [  0.916666666666667,  0.333333333333333,  0.416666666666667 ]
    mass: 47.867000
    reduced_to: 49
  - symbol: Ti # 73
    coordinates: [  0.166666666666667,  0.583333333333333,  0.416666666666667 ]
    mass: 47.867000
    reduced_to: 49
  - symbol: Ti # 74
    coordinates: [  0.416666666666667,  0.583333333333333,  0.416666666666667 ]
    mass: 47.867000
    reduced_to: 49
  - symbol: Ti # 75
    coordinates: [  0.666666666666667,  0.583333333333333,  0.416666666666667 ]
    mass: 47.867000
    reduced_to: 49
  - symbol: Ti # 76
    coordinates: [  0.916666666666667,  0.583333333333333,  0.416666666666667 ]
    mass: 47.867000
    reduced_to: 49
  - symbol: Ti # 77
    coordinates: [  0.166666666666667,  0.833333333333333,  0.416666666666667 ]
    mass: 47.867000
    reduced_to: 49
  - symbol: Ti # 78
    coordinates: [  0.416666666666667,  0.833333333333333,  0.416666666666667 ]
    mass: 47.867000
    reduced_to: 49
  - symbol: Ti # 79
    coordinates: [  0.666666666666667,  0.833333333333333,  0.416666666666667 ]
    mass: 47.867000
    reduced_to: 49
  - symbol: Ti # 80
    coordinates: [  0.916666666666667,  0.833333333333333,  0.416666666666667 ]
    mass: 47.867000
    reduced_to: 49
  - symbol: Ti # 81
    coordinates: [  0.166666666666667,  0.083333333333333,  0.750000000000000 ]
    mass: 47.867000
    reduced_to: 49
  - symbol: Ti # 82
    coordinates: [  0.416666666666667,  0.083333333333333,  0.750000000000000 ]
    mass: 47.867000
    reduced_to: 49
  - symbol: Ti # 83
    coordinates: [  0.666666666666667,  0.083333333333333,  0.750000000000000 ]
    mass: 47.867000
    reduced_to: 49
  - symbol: Ti # 84
    coordinates: [  0.916666666666667,  0.083333333333333,  0.750000000000000 ]
    mass: 47.867000
    reduced_to: 49
  - symbol: Ti # 85
    coordinates: [  0.166666666666667,  0.333333333333333,  0.750000000000000 ]
    mass: 47.867000
    reduced_to: 49
  - symbol: Ti # 86
    coordinates: [  0.416666666666667,  0.333333333333333,  0.750000000000000 ]
    mass: 47.867000
    reduced_to: 49
  - symbol: Ti # 87
    coordinates: [  0.666666666666667,  0.333333333333333,  0.750000000000000 ]
    mass: 47.867000
    reduced_to: 49
  - symbol: Ti # 88
    coordinates: [  0.916666666666667,  0.333333333333333,  0.750000000000000 ]
    mass: 47.867000
    reduced_to: 49
  - symbol: Ti # 89
    coordinates: [  0.166666666666667,  0.583333333333333,  0.750000000000000 ]
    mass: 47.867000
    reduced_to: 49
  - symbol: Ti # 90
    coordinates: [  0.416666666666667,  0.583333333333333,  0.750000000000000 ]
    mass: 47.867000
    reduced_to: 49
  - symbol: Ti # 91
    coordinates: [  0.666666666666667,  0.583333333333333,  0.750000000000000 ]
    mass: 47.867000
    reduced_to: 49
  - symbol: Ti # 92
    coordinates: [  0.916666666666667,  0.583333333333333,  0.750000000000000 ]
    mass: 47.867000
    reduced_to: 49
  - symbol: Ti # 93
    coordinates: [  0.166666666666667,  0.833333333333333,  0.750000000000000 ]
    mass: 47.867000
    reduced_to: 49
  - symbol: Ti # 94
    coordinates: [  0.416666666666667,  0.833333333333333,  0.750000000000000 ]
    mass: 47.867000
    reduced_to: 49
  - symbol: Ti # 95
    coordinates: [  0.666666666666667,  0.833333333333333,  0.750000000000000 ]
    mass: 47.867000
    reduced_to: 49
  - symbol: Ti # 96
    coordinates: [  0.916666666666667,  0.833333333333333,  0.750000000000000 ]
    mass: 47.867000
    reduced_to: 49

displacements:
- atom:    1
  displacement:
    [   0.0064452834123435,  0.0000000000000000,  0.0076458041914876 ]
