natom:   16
displacements:
- atom:    1
  direction:
    [   1.0000000000000000,  0.0000000000000000,  0.0000000000000000 ]
  displacement:
    [   0.0100000000000000,  0.0000000000000000,  0.0000000000000000 ]
lattice:
- [    5.625393887363781,   0.000000000000000,   0.000000000000000 ]
- [    0.000000000000000,   5.625393887363781,   0.000000000000000 ]
- [    0.000000000000000,   0.000000000000000,   5.625393887363781 ]
atoms:
- symbol: Cr # 1
  position: [   0.00000000000000,  0.00000000000000,  0.00000000000000 ]
- symbol: Cr # 2
  position: [   0.50000000000000,  0.00000000000000,  0.00000000000000 ]
- symbol: Cr # 3
  position: [   0.00000000000000,  0.50000000000000,  0.00000000000000 ]
- symbol: Cr # 4
  position: [   0.50000000000000,  0.50000000000000,  0.00000000000000 ]
- symbol: Cr # 5
  position: [   0.00000000000000,  0.00000000000000,  0.50000000000000 ]
- symbol: Cr # 6
  position: [   0.50000000000000,  0.00000000000000,  0.50000000000000 ]
- symbol: Cr # 7
  position: [   0.00000000000000,  0.50000000000000,  0.50000000000000 ]
- symbol: Cr # 8
  position: [   0.50000000000000,  0.50000000000000,  0.50000000000000 ]
- symbol: Cr # 9
  position: [   0.25000000000000,  0.25000000000000,  0.25000000000000 ]
- symbol: Cr # 10
  position: [   0.75000000000000,  0.25000000000000,  0.25000000000000 ]
- symbol: Cr # 11
  position: [   0.25000000000000,  0.75000000000000,  0.25000000000000 ]
- symbol: Cr # 12
  position: [   0.75000000000000,  0.75000000000000,  0.25000000000000 ]
- symbol: Cr # 13
  position: [   0.25000000000000,  0.25000000000000,  0.75000000000000 ]
- symbol: Cr # 14
  position: [   0.75000000000000,  0.25000000000000,  0.75000000000000 ]
- symbol: Cr # 15
  position: [   0.25000000000000,  0.75000000000000,  0.75000000000000 ]
- symbol: Cr # 16
  position: [   0.75000000000000,  0.75000000000000,  0.75000000000000 ]
