16
1

1
  0.0100000000000000   0.0000000000000000   0.0000000000000000
  -0.1325256200   -0.0000000000   -0.0000000000
   0.0649838000   -0.0000000000    0.0000000000
  -0.0046770000   -0.0000000000    0.0000000000
   0.0076905400   -0.0000000000    0.0000000000
  -0.0046770000   -0.0000000000   -0.0000000000
   0.0076905400   -0.0000000000   -0.0000000000
   0.0027645800   -0.0000000000    0.0000000000
   0.0041234800   -0.0000000000   -0.0000000000
   0.0070706300    0.0058273200    0.0058273200
   0.0065860300   -0.0056186700   -0.0056186700
   0.0070706300   -0.0058273200    0.0058273200
   0.0065860300    0.0056186700   -0.0056186700
   0.0070706300    0.0058273200   -0.0058273200
   0.0065860300   -0.0056186700    0.0056186700
   0.0070706300   -0.0058273200   -0.0058273200
   0.0065860300    0.0056186700    0.0056186700
