16   
1    

1    
  0.0100000000000000   0.0000000000000000   0.0000000000000000
  -0.1295301800    0.0000000000    0.0000000000
   0.0667347800    0.0000000000    0.0000000000
  -0.0071722600    0.0000000000    0.0000000000
   0.0067031100    0.0000000000    0.0000000000
  -0.0071722600    0.0000000000    0.0000000000
   0.0067031100    0.0000000000    0.0000000000
   0.0049131600    0.0000000000    0.0000000000
   0.0021502200    0.0000000000    0.0000000000
   0.0073388400    0.0052847500    0.0052847500
   0.0068287400   -0.0050529600   -0.0050529600
   0.0073388400   -0.0052847500    0.0052847500
   0.0068287400    0.0050529600   -0.0050529600
   0.0073388400    0.0052847500   -0.0052847500
   0.0068287400   -0.0050529600    0.0050529600
   0.0073388400   -0.0052847500   -0.0052847500
   0.0068287400    0.0050529600    0.0050529600
