<?xml version="1.0" encoding="ISO-8859-1"?>
<modeling>
 <generator>
  <i name="program" type="string">vasp </i>
  <i name="version" type="string">5.3.5  </i>
  <i name="subversion" type="string">31Mar14 (build Dec 01 2014 13:53:06) complex                          parallel </i>
  <i name="platform" type="string">LinuxIFC </i>
  <i name="date" type="string">2014 12 02 </i>
  <i name="time" type="string">12:06:18 </i>
 </generator>
 <incar>
  <i type="string" name="PREC">accurate</i>
  <i type="int" name="IALGO">    38</i>
  <i type="logical" name="ADDGRID"> T  </i>
  <i type="int" name="ISPIN">     2</i>
  <i type="int" name="NELMIN">     5</i>
  <i type="int" name="IBRION">    -1</i>
  <i name="EDIFF">      0.00000001</i>
  <i name="ENCUT">    350.00000000</i>
  <v name="MAGMOM">      1.00000000      1.00000000      1.00000000      1.00000000      1.00000000      1.00000000      1.00000000      1.00000000     -1.00000000     -1.00000000     -1.00000000     -1.00000000     -1.00000000     -1.00000000     -1.00000000     -1.00000000</v>
  <i type="logical" name="LREAL"> F  </i>
  <i type="int" name="ISMEAR">     0</i>
  <i name="SIGMA">      0.01000000</i>
  <i type="logical" name="LWAVE"> F  </i>
  <i type="logical" name="LCHARG"> F  </i>
  <i type="string" name="GGA"> PS</i>
 </incar>
 <kpoints>
  <generation param="Monkhorst-Pack">
   <v type="int" name="divisions">       8        8        8 </v>
   <v name="usershift">      0.00000000       0.00000000       0.00000000 </v>
   <v name="genvec1">      0.12500000       0.00000000       0.00000000 </v>
   <v name="genvec2">      0.00000000       0.12500000       0.00000000 </v>
   <v name="genvec3">      0.00000000       0.00000000       0.12500000 </v>
   <v name="shift">      0.50000000       0.50000000       0.50000000 </v>
  </generation>
  <varray name="kpointlist" >
   <v>       0.06250000       0.06250000       0.06250000 </v>
   <v>       0.18750000       0.06250000       0.06250000 </v>
   <v>       0.31250000       0.06250000       0.06250000 </v>
   <v>       0.43750000       0.06250000       0.06250000 </v>
   <v>       0.06250000       0.18750000       0.06250000 </v>
   <v>       0.18750000       0.18750000       0.06250000 </v>
   <v>       0.31250000       0.18750000       0.06250000 </v>
   <v>       0.43750000       0.18750000       0.06250000 </v>
   <v>       0.06250000       0.31250000       0.06250000 </v>
   <v>       0.18750000       0.31250000       0.06250000 </v>
   <v>       0.31250000       0.31250000       0.06250000 </v>
   <v>       0.43750000       0.31250000       0.06250000 </v>
   <v>       0.06250000       0.43750000       0.06250000 </v>
   <v>       0.18750000       0.43750000       0.06250000 </v>
   <v>       0.31250000       0.43750000       0.06250000 </v>
   <v>       0.43750000       0.43750000       0.06250000 </v>
   <v>       0.06250000       0.18750000       0.18750000 </v>
   <v>       0.18750000       0.18750000       0.18750000 </v>
   <v>       0.31250000       0.18750000       0.18750000 </v>
   <v>       0.43750000       0.18750000       0.18750000 </v>
   <v>       0.06250000       0.31250000       0.18750000 </v>
   <v>       0.18750000       0.31250000       0.18750000 </v>
   <v>       0.31250000       0.31250000       0.18750000 </v>
   <v>       0.43750000       0.31250000       0.18750000 </v>
   <v>       0.06250000       0.43750000       0.18750000 </v>
   <v>       0.18750000       0.43750000       0.18750000 </v>
   <v>       0.31250000       0.43750000       0.18750000 </v>
   <v>       0.43750000       0.43750000       0.18750000 </v>
   <v>       0.06250000       0.31250000       0.31250000 </v>
   <v>       0.18750000       0.31250000       0.31250000 </v>
   <v>       0.31250000       0.31250000       0.31250000 </v>
   <v>       0.43750000       0.31250000       0.31250000 </v>
   <v>       0.06250000       0.43750000       0.31250000 </v>
   <v>       0.18750000       0.43750000       0.31250000 </v>
   <v>       0.31250000       0.43750000       0.31250000 </v>
   <v>       0.43750000       0.43750000       0.31250000 </v>
   <v>       0.06250000       0.43750000       0.43750000 </v>
   <v>       0.18750000       0.43750000       0.43750000 </v>
   <v>       0.31250000       0.43750000       0.43750000 </v>
   <v>       0.43750000       0.43750000       0.43750000 </v>
  </varray>
  <varray name="weights" >
   <v>       0.01562500 </v>
   <v>       0.01562500 </v>
   <v>       0.01562500 </v>
   <v>       0.01562500 </v>
   <v>       0.03125000 </v>
   <v>       0.03125000 </v>
   <v>       0.03125000 </v>
   <v>       0.03125000 </v>
   <v>       0.03125000 </v>
   <v>       0.03125000 </v>
   <v>       0.03125000 </v>
   <v>       0.03125000 </v>
   <v>       0.03125000 </v>
   <v>       0.03125000 </v>
   <v>       0.03125000 </v>
   <v>       0.03125000 </v>
   <v>       0.01562500 </v>
   <v>       0.01562500 </v>
   <v>       0.01562500 </v>
   <v>       0.01562500 </v>
   <v>       0.03125000 </v>
   <v>       0.03125000 </v>
   <v>       0.03125000 </v>
   <v>       0.03125000 </v>
   <v>       0.03125000 </v>
   <v>       0.03125000 </v>
   <v>       0.03125000 </v>
   <v>       0.03125000 </v>
   <v>       0.01562500 </v>
   <v>       0.01562500 </v>
   <v>       0.01562500 </v>
   <v>       0.01562500 </v>
   <v>       0.03125000 </v>
   <v>       0.03125000 </v>
   <v>       0.03125000 </v>
   <v>       0.03125000 </v>
   <v>       0.01562500 </v>
   <v>       0.01562500 </v>
   <v>       0.01562500 </v>
   <v>       0.01562500 </v>
  </varray>
 </kpoints>
 <parameters>
  <separator name="general" >
   <i type="string" name="SYSTEM">unknown system</i>
   <i type="logical" name="LCOMPAT"> F  </i>
  </separator>
  <separator name="electronic" >
   <i type="string" name="PREC">accura</i>
   <i name="ENMAX">    350.00000000</i>
   <i name="ENAUG">    519.42400000</i>
   <i name="EDIFF">      0.00000001</i>
   <i type="int" name="IALGO">    38</i>
   <i type="int" name="IWAVPR">    10</i>
   <i type="int" name="NBANDS">   116</i>
   <i name="NELECT">    192.00000000</i>
   <i type="int" name="TURBO">     0</i>
   <i type="int" name="IRESTART">     0</i>
   <i type="int" name="NREBOOT">     0</i>
   <i type="int" name="NMIN">     0</i>
   <i name="EREF">      0.00000000</i>
   <separator name="electronic smearing" >
    <i type="int" name="ISMEAR">     0</i>
    <i name="SIGMA">      0.01000000</i>
    <i name="KSPACING">      0.50000000</i>
    <i type="logical" name="KGAMMA"> T  </i>
   </separator>
   <separator name="electronic projectors" >
    <i type="logical" name="LREAL"> F  </i>
    <v name="ROPT">      0.00000000</v>
    <i type="int" name="LMAXPAW">  -100</i>
    <i type="int" name="LMAXMIX">     2</i>
    <i type="logical" name="NLSPLINE"> F  </i>
   </separator>
   <separator name="electronic startup" >
    <i type="int" name="ISTART">     0</i>
    <i type="int" name="ICHARG">     2</i>
    <i type="int" name="INIWAV">     1</i>
   </separator>
   <separator name="electronic spin" >
    <i type="int" name="ISPIN">     2</i>
    <i type="logical" name="LNONCOLLINEAR"> F  </i>
    <v name="MAGMOM">      1.00000000      1.00000000      1.00000000      1.00000000      1.00000000      1.00000000      1.00000000      1.00000000     -1.00000000     -1.00000000     -1.00000000     -1.00000000     -1.00000000     -1.00000000     -1.00000000     -1.00000000</v>
    <i name="NUPDOWN">     -1.00000000</i>
    <i type="logical" name="LSORBIT"> F  </i>
    <v name="SAXIS">      0.00000000      0.00000000      1.00000000</v>
    <i type="logical" name="LSPIRAL"> F  </i>
    <v name="QSPIRAL">      0.00000000      0.00000000      0.00000000</v>
    <i type="logical" name="LZEROZ"> F  </i>
   </separator>
   <separator name="electronic exchange-correlation" >
    <i type="logical" name="LASPH"> F  </i>
    <i type="logical" name="LMETAGGA"> F  </i>
   </separator>
   <separator name="electronic convergence" >
    <i type="int" name="NELM">    60</i>
    <i type="int" name="NELMDL">     0</i>
    <i type="int" name="NELMIN">     5</i>
    <i name="ENINI">    350.00000000</i>
    <separator name="electronic convergence detail" >
     <i type="logical" name="LDIAG"> T  </i>
     <i type="logical" name="LSUBROT"> F  </i>
     <i name="WEIMIN">      0.00000000</i>
     <i name="EBREAK">      0.00000000</i>
     <i name="DEPER">      0.30000000</i>
     <i type="int" name="NRMM">     4</i>
     <i name="TIME">      0.40000000</i>
    </separator>
   </separator>
   <separator name="electronic mixer" >
    <i name="AMIX">      0.40000000</i>
    <i name="BMIX">      1.00000000</i>
    <i name="AMIN">      0.10000000</i>
    <i name="AMIX_MAG">      1.60000000</i>
    <i name="BMIX_MAG">      1.00000000</i>
    <separator name="electronic mixer details" >
     <i type="int" name="IMIX">     4</i>
     <i type="int" name="MAXMIX">   -45</i>
     <i name="WC">    100.00000000</i>
     <i type="int" name="INIMIX">     1</i>
     <i type="int" name="MIXPRE">     1</i>
     <i type="int" name="MREMOVE">     5</i>
    </separator>
   </separator>
   <separator name="electronic dipolcorrection" >
    <i type="logical" name="LDIPOL"> F  </i>
    <i type="logical" name="LMONO"> F  </i>
    <i type="int" name="IDIPOL">     0</i>
    <i name="EPSILON">      1.00000000</i>
    <v name="DIPOL">   -100.00000000   -100.00000000   -100.00000000</v>
    <i name="EFIELD">      0.00000000</i>
   </separator>
  </separator>
  <separator name="grids" >
   <i type="int" name="NGX">    36</i>
   <i type="int" name="NGY">    36</i>
   <i type="int" name="NGZ">    36</i>
   <i type="int" name="NGXF">    72</i>
   <i type="int" name="NGYF">    72</i>
   <i type="int" name="NGZF">    72</i>
   <i type="logical" name="ADDGRID"> T  </i>
  </separator>
  <separator name="ionic" >
   <i type="int" name="NSW">     0</i>
   <i type="int" name="IBRION">    -1</i>
   <i type="int" name="ISIF">     2</i>
   <i name="PSTRESS">      0.00000000</i>
   <i name="EDIFFG">      0.00000010</i>
   <i type="int" name="NFREE">     0</i>
   <i name="POTIM">      0.50000000</i>
   <i name="SMASS">     -3.00000000</i>
   <i name="SCALEE">      1.00000000</i>
  </separator>
  <separator name="ionic md" >
   <i name="TEBEG">      0.00010000</i>
   <i name="TEEND">      0.00010000</i>
   <i type="int" name="NBLOCK">     1</i>
   <i type="int" name="KBLOCK">     1</i>
   <i type="int" name="NPACO">   256</i>
   <i name="APACO">     16.00000000</i>
  </separator>
  <separator name="symmetry" >
   <i type="int" name="ISYM">     2</i>
   <i name="SYMPREC">      0.00001000</i>
  </separator>
  <separator name="dos" >
   <i type="logical" name="LORBIT"> F  </i>
   <v name="RWIGS">     -1.00000000</v>
   <i type="int" name="NEDOS">   301</i>
   <i name="EMIN">     10.00000000</i>
   <i name="EMAX">    -10.00000000</i>
   <i name="EFERMI">      0.00000000</i>
  </separator>
  <separator name="writing" >
   <i type="int" name="NWRITE">     2</i>
   <i type="logical" name="LWAVE"> F  </i>
   <i type="logical" name="LCHARG"> F  </i>
   <i type="logical" name="LPARD"> F  </i>
   <i type="logical" name="LVTOT"> F  </i>
   <i type="logical" name="LVHAR"> F  </i>
   <i type="logical" name="LELF"> F  </i>
   <i type="logical" name="LOPTICS"> F  </i>
   <v name="STM">      0.00000000      0.00000000      0.00000000      0.00000000      0.00000000      0.00000000      0.00000000</v>
  </separator>
  <separator name="performance" >
   <i type="int" name="NPAR">     4</i>
   <i type="int" name="NSIM">     4</i>
   <i type="int" name="NBLK">    -1</i>
   <i type="logical" name="LPLANE"> T  </i>
   <i type="logical" name="LSCALAPACK"> T  </i>
   <i type="logical" name="LSCAAWARE"> F  </i>
   <i type="logical" name="LSCALU"> F  </i>
   <i type="logical" name="LASYNC"> F  </i>
   <i type="logical" name="LORBITALREAL"> F  </i>
  </separator>
  <separator name="miscellaneous" >
   <i type="int" name="IDIOT">     3</i>
   <i type="logical" name="LMUSIC"> F  </i>
   <v name="POMASS">     51.99600000</v>
   <v name="DARWINR">      0.00000000</v>
   <v name="DARWINV">      1.00000000</v>
   <i type="logical" name="LCORR"> T  </i>
  </separator>
  <i type="logical" name="GGA_COMPAT"> T  </i>
  <i type="logical" name="LBERRY"> F  </i>
  <i type="int" name="ICORELEVEL">     0</i>
  <i type="logical" name="LDAU"> F  </i>
  <i type="int" name="I_CONSTRAINED_M">     0</i>
  <separator name="electronic exchange-correlation" >
   <i type="string" name="GGA">PS</i>
   <i type="int" name="VOSKOWN">     0</i>
   <i type="logical" name="LHFCALC"> F  </i>
   <i type="string" name="PRECFOCK"></i>
   <i type="logical" name="LSYMGRAD"> F  </i>
   <i type="logical" name="LHFONE"> F  </i>
   <i type="logical" name="LRHFCALC"> F  </i>
   <i type="logical" name="LTHOMAS"> F  </i>
   <i type="logical" name="LMODELHF"> F  </i>
   <i name="ENCUT4O">     -1.00000000</i>
   <i type="int" name="EXXOEP">     0</i>
   <i type="int" name="FOURORBIT">     0</i>
   <i name="AEXX">      0.00000000</i>
   <i name="HFALPHA">      0.00000000</i>
   <i name="MCALPHA">      0.00000000</i>
   <i name="ALDAX">      1.00000000</i>
   <i name="AGGAX">      1.00000000</i>
   <i name="ALDAC">      1.00000000</i>
   <i name="AGGAC">      1.00000000</i>
   <i type="int" name="NKREDX">     1</i>
   <i type="int" name="NKREDY">     1</i>
   <i type="int" name="NKREDZ">     1</i>
   <i type="logical" name="SHIFTRED"> F  </i>
   <i type="logical" name="ODDONLY"> F  </i>
   <i type="logical" name="EVENONLY"> F  </i>
   <i type="int" name="LMAXFOCK">     0</i>
   <i type="int" name="NMAXFOCKAE">     0</i>
   <i type="logical" name="LFOCKAEDFT"> F  </i>
   <i name="HFSCREEN">      0.00000000</i>
   <i name="HFSCREENC">      0.00000000</i>
   <i type="int" name="NBANDSGWLOW">     0</i>
  </separator>
  <separator name="vdW DFT" >
   <i type="logical" name="LUSE_VDW"> F  </i>
   <i name="Zab_VDW">     -0.84910000</i>
   <i name="PARAM1">      0.12340000</i>
   <i name="PARAM2">      1.00000000</i>
   <i name="PARAM3">      0.00000000</i>
  </separator>
  <separator name="model GW" >
   <i type="int" name="MODEL_GW">     0</i>
   <i name="MODEL_EPS0">      6.67559650</i>
   <i name="MODEL_ALPHA">      1.00000000</i>
  </separator>
  <separator name="linear response parameters" >
   <i type="logical" name="LEPSILON"> F  </i>
   <i type="logical" name="LRPA"> F  </i>
   <i type="logical" name="LNABLA"> F  </i>
   <i type="logical" name="LVEL"> F  </i>
   <i type="int" name="KINTER">     0</i>
   <i name="CSHIFT">      0.10000000</i>
   <i name="OMEGAMAX">     -1.00000000</i>
   <i name="DEG_THRESHOLD">      0.00200000</i>
  </separator>
  <separator name="orbital magnetization" >
   <i type="logical" name="NUCIND"> F  </i>
   <v name="MAGPOS">      0.00000000      0.00000000      0.00000000</v>
   <i type="logical" name="LNICSALL"> T  </i>
   <i type="logical" name="ORBITALMAG"> F  </i>
   <i type="logical" name="LMAGBLOCH"> F  </i>
   <i type="logical" name="LCHIMAG"> F  </i>
   <i type="logical" name="LGAUGE"> T  </i>
   <i type="int" name="MAGATOM">     0</i>
   <v name="MAGDIPOL">      0.00000000      0.00000000      0.00000000</v>
   <v name="AVECCONST">      0.00000000      0.00000000      0.00000000</v>
  </separator>
  <separator name="response functions" >
   <i type="logical" name="LADDER"> F  </i>
   <i type="logical" name="LFXC"> F  </i>
   <i type="logical" name="LHARTREE"> T  </i>
   <i type="int" name="IBSE">     0</i>
   <i type="logical" name="LTCTE"> F  </i>
   <i type="logical" name="LTETE"> F  </i>
   <i type="logical" name="LTRIPLET"> F  </i>
   <i type="logical" name="LFXCEPS"> F  </i>
   <i type="logical" name="LFXHEG"> F  </i>
   <i type="logical" name="L2ORDER"> F  </i>
   <i type="logical" name="LUSEW"> F  </i>
   <i name="ENCUTGW">     -2.00000000</i>
   <i name="ENCUTGWSOFT">     -2.00000000</i>
   <i name="ENCUTLF">     -1.00000000</i>
   <i type="int" name="LMAXMP2">    -1</i>
   <i name="SCISSOR">      0.00000000</i>
   <i type="int" name="NOMEGA">     0</i>
   <i type="int" name="NOMEGAR">     0</i>
   <i type="int" name="NBANDSGW">    -1</i>
   <i type="int" name="NBANDSO">    -1</i>
   <i type="int" name="NBANDSV">    -1</i>
   <i type="int" name="NELM">     1</i>
   <i type="int" name="DIM">     3</i>
   <i type="int" name="ANTIRES">     0</i>
   <i name="OMEGAMAX">    -30.00000000</i>
   <i name="OMEGAMIN">    -30.00000000</i>
   <i name="OMEGATL">   -200.00000000</i>
   <i type="int" name="OMEGAGRID">     0</i>
   <i name="CSHIFT">     -0.10000000</i>
   <i type="logical" name="SELFENERGY"> F  </i>
   <i type="logical" name="LSPECTRAL"> F  </i>
   <i type="logical" name="ODDONLYGW"> F  </i>
   <i type="logical" name="EVENONLYGW"> F  </i>
   <i type="int" name="NKREDLFX">     1</i>
   <i type="int" name="NKREDLFY">     1</i>
   <i type="int" name="NKREDLFZ">     1</i>
   <i type="int" name="MAXMEM">  1800</i>
   <i type="int" name="TELESCOPE">     0</i>
   <i type="int" name="TAUPAR">     1</i>
  </separator>
  <separator name="External order field" >
   <i name="OFIELD_KAPPA">      0.00000000</i>
   <v name="OFIELD_K">      0.00000000      0.00000000      0.00000000</v>
   <i name="OFIELD_Q6_NEAR">      0.00000000</i>
   <i name="OFIELD_Q6_FAR">      0.00000000</i>
   <i name="OFIELD_A">      0.00000000</i>
  </separator>
 </parameters>
 <atominfo>
  <atoms>      16 </atoms>
  <types>       1 </types>
  <array name="atoms" >
   <dimension dim="1">ion</dimension>
   <field type="string">element</field>
   <field type="int">atomtype</field>
   <set>
    <rc><c>Cr</c><c>   1</c></rc>
    <rc><c>Cr</c><c>   1</c></rc>
    <rc><c>Cr</c><c>   1</c></rc>
    <rc><c>Cr</c><c>   1</c></rc>
    <rc><c>Cr</c><c>   1</c></rc>
    <rc><c>Cr</c><c>   1</c></rc>
    <rc><c>Cr</c><c>   1</c></rc>
    <rc><c>Cr</c><c>   1</c></rc>
    <rc><c>Cr</c><c>   1</c></rc>
    <rc><c>Cr</c><c>   1</c></rc>
    <rc><c>Cr</c><c>   1</c></rc>
    <rc><c>Cr</c><c>   1</c></rc>
    <rc><c>Cr</c><c>   1</c></rc>
    <rc><c>Cr</c><c>   1</c></rc>
    <rc><c>Cr</c><c>   1</c></rc>
    <rc><c>Cr</c><c>   1</c></rc>
   </set>
  </array>
  <array name="atomtypes" >
   <dimension dim="1">type</dimension>
   <field type="int">atomspertype</field>
   <field type="string">element</field>
   <field>mass</field>
   <field>valence</field>
   <field type="string">pseudopotential</field>
   <set>
    <rc><c>  16</c><c>Cr</c><c>     51.99600000</c><c>     12.00000000</c><c>  PAW_PBE Cr_pv 02Aug2007               </c></rc>
   </set>
  </array>
 </atominfo>
 <structure name="initialpos" >
  <crystal>
   <varray name="basis" >
    <v>       5.62539389       0.00000000       0.00000000 </v>
    <v>       0.00000000       5.62539389       0.00000000 </v>
    <v>       0.00000000       0.00000000       5.62539389 </v>
   </varray>
   <i name="volume">    178.01590677 </i>
   <varray name="rec_basis" >
    <v>       0.17776533       0.00000000       0.00000000 </v>
    <v>       0.00000000       0.17776533       0.00000000 </v>
    <v>       0.00000000       0.00000000       0.17776533 </v>
   </varray>
  </crystal>
  <varray name="positions" >
   <v>       0.00177765       0.00000000       0.00000000 </v>
   <v>       0.50000000       0.00000000       0.00000000 </v>
   <v>       0.00000000       0.50000000       0.00000000 </v>
   <v>       0.50000000       0.50000000       0.00000000 </v>
   <v>       0.00000000       0.00000000       0.50000000 </v>
   <v>       0.50000000       0.00000000       0.50000000 </v>
   <v>       0.00000000       0.50000000       0.50000000 </v>
   <v>       0.50000000       0.50000000       0.50000000 </v>
   <v>       0.25000000       0.25000000       0.25000000 </v>
   <v>       0.75000000       0.25000000       0.25000000 </v>
   <v>       0.25000000       0.75000000       0.25000000 </v>
   <v>       0.75000000       0.75000000       0.25000000 </v>
   <v>       0.25000000       0.25000000       0.75000000 </v>
   <v>       0.75000000       0.25000000       0.75000000 </v>
   <v>       0.25000000       0.75000000       0.75000000 </v>
   <v>       0.75000000       0.75000000       0.75000000 </v>
  </varray>
 </structure>
 <calculation>
  <scstep>
   <time name="dav">    7.46    7.47</time>
   <time name="total">    7.59    7.60</time>
   <energy>
    <i name="alphaZ">   1503.27655648 </i>
    <i name="ewald"> -21463.21746276 </i>
    <i name="hartreedc">  -4969.68198702 </i>
    <i name="XCdc">    909.11932603 </i>
    <i name="pawpsdc">  20906.62376917 </i>
    <i name="pawaedc"> -21687.32313275 </i>
    <i name="eentropy">     -0.00022870 </i>
    <i name="bandstr">    828.29202615 </i>
    <i name="atom">  26347.03964296 </i>
    <i name="e_fr_energy">   2374.12850955 </i>
    <i name="e_wo_entrp">   2374.12873825 </i>
    <i name="e_0_energy">   2374.12862390 </i>
   </energy>
  </scstep>
  <scstep>
   <time name="dav">    7.26    7.27</time>
   <time name="total">    7.27    7.27</time>
   <energy>
    <i name="e_fr_energy">     29.89643056 </i>
    <i name="e_wo_entrp">     29.89724047 </i>
    <i name="e_0_energy">     29.89683552 </i>
   </energy>
  </scstep>
  <scstep>
   <time name="dav">    9.10    9.11</time>
   <time name="total">    9.11    9.12</time>
   <energy>
    <i name="e_fr_energy">   -181.30742795 </i>
    <i name="e_wo_entrp">   -181.30702428 </i>
    <i name="e_0_energy">   -181.30722612 </i>
   </energy>
  </scstep>
  <scstep>
   <time name="dav">    9.08    9.08</time>
   <time name="total">    9.08    9.09</time>
   <energy>
    <i name="e_fr_energy">   -191.76467351 </i>
    <i name="e_wo_entrp">   -191.76403345 </i>
    <i name="e_0_energy">   -191.76435348 </i>
   </energy>
  </scstep>
  <scstep>
   <time name="dav">    8.73    8.73</time>
   <time name="total">    9.12    9.14</time>
   <energy>
    <i name="e_fr_energy">   -192.08090803 </i>
    <i name="e_wo_entrp">   -192.08021337 </i>
    <i name="e_0_energy">   -192.08056070 </i>
   </energy>
  </scstep>
  <scstep>
   <time name="dav">    7.59    7.60</time>
   <time name="total">    8.10    8.11</time>
   <energy>
    <i name="e_fr_energy">   -164.15046432 </i>
    <i name="e_wo_entrp">   -164.14967480 </i>
    <i name="e_0_energy">   -164.15006956 </i>
   </energy>
  </scstep>
  <scstep>
   <time name="dav">    8.49    8.50</time>
   <time name="total">    9.01    9.02</time>
   <energy>
    <i name="e_fr_energy">   -164.13714191 </i>
    <i name="e_wo_entrp">   -164.13642439 </i>
    <i name="e_0_energy">   -164.13678315 </i>
   </energy>
  </scstep>
  <scstep>
   <time name="dav">    9.35    9.36</time>
   <time name="total">    9.86    9.88</time>
   <energy>
    <i name="e_fr_energy">   -164.16714954 </i>
    <i name="e_wo_entrp">   -164.16648787 </i>
    <i name="e_0_energy">   -164.16681871 </i>
   </energy>
  </scstep>
  <scstep>
   <time name="dav">    9.32    9.33</time>
   <time name="total">    9.83    9.85</time>
   <energy>
    <i name="e_fr_energy">   -164.08328245 </i>
    <i name="e_wo_entrp">   -164.08279521 </i>
    <i name="e_0_energy">   -164.08303883 </i>
   </energy>
  </scstep>
  <scstep>
   <time name="dav">    9.30    9.30</time>
   <time name="total">    9.81    9.82</time>
   <energy>
    <i name="e_fr_energy">   -163.99462077 </i>
    <i name="e_wo_entrp">   -163.99382586 </i>
    <i name="e_0_energy">   -163.99422331 </i>
   </energy>
  </scstep>
  <scstep>
   <time name="dav">    9.19    9.20</time>
   <time name="total">    9.70    9.71</time>
   <energy>
    <i name="e_fr_energy">   -163.96190984 </i>
    <i name="e_wo_entrp">   -163.96141212 </i>
    <i name="e_0_energy">   -163.96166098 </i>
   </energy>
  </scstep>
  <scstep>
   <time name="dav">    8.79    8.80</time>
   <time name="total">    9.31    9.32</time>
   <energy>
    <i name="e_fr_energy">   -163.95681043 </i>
    <i name="e_wo_entrp">   -163.95589042 </i>
    <i name="e_0_energy">   -163.95635042 </i>
   </energy>
  </scstep>
  <scstep>
   <time name="dav">    9.28    9.28</time>
   <time name="total">    9.79    9.80</time>
   <energy>
    <i name="e_fr_energy">   -163.95693485 </i>
    <i name="e_wo_entrp">   -163.95602185 </i>
    <i name="e_0_energy">   -163.95647835 </i>
   </energy>
  </scstep>
  <scstep>
   <time name="dav">    9.27    9.28</time>
   <time name="total">    9.78    9.79</time>
   <energy>
    <i name="e_fr_energy">   -163.95667910 </i>
    <i name="e_wo_entrp">   -163.95577291 </i>
    <i name="e_0_energy">   -163.95622601 </i>
   </energy>
  </scstep>
  <scstep>
   <time name="dav">    9.27    9.28</time>
   <time name="total">    9.79    9.81</time>
   <energy>
    <i name="e_fr_energy">   -163.95668672 </i>
    <i name="e_wo_entrp">   -163.95577284 </i>
    <i name="e_0_energy">   -163.95622978 </i>
   </energy>
  </scstep>
  <scstep>
   <time name="dav">    9.26    9.26</time>
   <time name="total">    9.77    9.78</time>
   <energy>
    <i name="e_fr_energy">   -163.95659575 </i>
    <i name="e_wo_entrp">   -163.95567632 </i>
    <i name="e_0_energy">   -163.95613603 </i>
   </energy>
  </scstep>
  <scstep>
   <time name="dav">    9.55    9.56</time>
   <time name="total">   10.06   10.08</time>
   <energy>
    <i name="e_fr_energy">   -163.95659488 </i>
    <i name="e_wo_entrp">   -163.95567613 </i>
    <i name="e_0_energy">   -163.95613550 </i>
   </energy>
  </scstep>
  <scstep>
   <time name="dav">    9.32    9.32</time>
   <time name="total">    9.83    9.84</time>
   <energy>
    <i name="e_fr_energy">   -163.95659629 </i>
    <i name="e_wo_entrp">   -163.95567836 </i>
    <i name="e_0_energy">   -163.95613732 </i>
   </energy>
  </scstep>
  <scstep>
   <time name="dav">    9.36    9.37</time>
   <time name="total">    9.88    9.89</time>
   <energy>
    <i name="e_fr_energy">   -163.95659550 </i>
    <i name="e_wo_entrp">   -163.95567787 </i>
    <i name="e_0_energy">   -163.95613669 </i>
   </energy>
  </scstep>
  <scstep>
   <time name="dav">    9.00    9.00</time>
   <time name="total">    9.51    9.52</time>
   <energy>
    <i name="e_fr_energy">   -163.95659600 </i>
    <i name="e_wo_entrp">   -163.95567825 </i>
    <i name="e_0_energy">   -163.95613712 </i>
   </energy>
  </scstep>
  <scstep>
   <time name="dav">    8.81    8.81</time>
   <time name="total">    9.32    9.33</time>
   <energy>
    <i name="e_fr_energy">   -163.95659609 </i>
    <i name="e_wo_entrp">   -163.95567852 </i>
    <i name="e_0_energy">   -163.95613730 </i>
   </energy>
  </scstep>
  <scstep>
   <time name="dav">    8.25    8.26</time>
   <time name="total">    8.76    8.78</time>
   <energy>
    <i name="e_fr_energy">   -163.95659615 </i>
    <i name="e_wo_entrp">   -163.95567872 </i>
    <i name="e_0_energy">   -163.95613744 </i>
   </energy>
  </scstep>
  <scstep>
   <time name="dav">    8.15    8.16</time>
   <time name="total">    8.66    8.67</time>
   <energy>
    <i name="e_fr_energy">   -163.95659644 </i>
    <i name="e_wo_entrp">   -163.95567944 </i>
    <i name="e_0_energy">   -163.95613794 </i>
   </energy>
  </scstep>
  <scstep>
   <time name="dav">    8.17    8.17</time>
   <time name="total">    8.68    8.69</time>
   <energy>
    <i name="e_fr_energy">   -163.95659656 </i>
    <i name="e_wo_entrp">   -163.95567997 </i>
    <i name="e_0_energy">   -163.95613827 </i>
   </energy>
  </scstep>
  <scstep>
   <time name="dav">    8.12    8.13</time>
   <time name="total">    8.63    8.64</time>
   <energy>
    <i name="e_fr_energy">   -163.95659651 </i>
    <i name="e_wo_entrp">   -163.95568067 </i>
    <i name="e_0_energy">   -163.95613859 </i>
   </energy>
  </scstep>
  <scstep>
   <time name="dav">    8.19    8.20</time>
   <time name="total">    8.70    8.71</time>
   <energy>
    <i name="e_fr_energy">   -163.95659650 </i>
    <i name="e_wo_entrp">   -163.95568081 </i>
    <i name="e_0_energy">   -163.95613865 </i>
   </energy>
  </scstep>
  <scstep>
   <time name="dav">    8.02    8.03</time>
   <time name="total">    8.53    8.54</time>
   <energy>
    <i name="e_fr_energy">   -163.95659638 </i>
    <i name="e_wo_entrp">   -163.95568104 </i>
    <i name="e_0_energy">   -163.95613871 </i>
   </energy>
  </scstep>
  <scstep>
   <time name="dav">    7.03    7.04</time>
   <time name="total">    7.54    7.56</time>
   <energy>
    <i name="e_fr_energy">   -163.95659635 </i>
    <i name="e_wo_entrp">   -163.95568109 </i>
    <i name="e_0_energy">   -163.95613872 </i>
   </energy>
  </scstep>
  <scstep>
   <time name="dav">    6.18    6.18</time>
   <time name="total">    6.69    6.70</time>
   <energy>
    <i name="e_fr_energy">   -163.95659633 </i>
    <i name="e_wo_entrp">   -163.95568114 </i>
    <i name="e_0_energy">   -163.95613874 </i>
   </energy>
  </scstep>
  <scstep>
   <time name="dav">    5.18    5.18</time>
   <time name="total">    5.29    5.30</time>
   <energy>
    <i name="alphaZ">   1503.27655648 </i>
    <i name="ewald"> -21463.21746276 </i>
    <i name="hartreedc">  -4433.91218938 </i>
    <i name="XCdc">    880.13813260 </i>
    <i name="pawpsdc">  23323.34507208 </i>
    <i name="pawaedc"> -24134.07058696 </i>
    <i name="eentropy">     -0.00091518 </i>
    <i name="bandstr">  -2186.55484617 </i>
    <i name="atom">  26347.03964296 </i>
    <i name="e_fr_energy">   -163.95659633 </i>
    <i name="e_wo_entrp">   -163.95568114 </i>
    <i name="e_0_energy">   -163.95613873 </i>
   </energy>
  </scstep>
  <structure>
   <crystal>
    <varray name="basis" >
     <v>       5.62539389       0.00000000       0.00000000 </v>
     <v>       0.00000000       5.62539389       0.00000000 </v>
     <v>       0.00000000       0.00000000       5.62539389 </v>
    </varray>
    <i name="volume">    178.01590677 </i>
    <varray name="rec_basis" >
     <v>       0.17776533       0.00000000       0.00000000 </v>
     <v>       0.00000000       0.17776533       0.00000000 </v>
     <v>       0.00000000       0.00000000       0.17776533 </v>
    </varray>
   </crystal>
   <varray name="positions" >
    <v>       0.00177765       0.00000000       0.00000000 </v>
    <v>       0.50000000       0.00000000       0.00000000 </v>
    <v>       0.00000000       0.50000000       0.00000000 </v>
    <v>       0.50000000       0.50000000       0.00000000 </v>
    <v>       0.00000000       0.00000000       0.50000000 </v>
    <v>       0.50000000       0.00000000       0.50000000 </v>
    <v>       0.00000000       0.50000000       0.50000000 </v>
    <v>       0.50000000       0.50000000       0.50000000 </v>
    <v>       0.25000000       0.25000000       0.25000000 </v>
    <v>       0.75000000       0.25000000       0.25000000 </v>
    <v>       0.25000000       0.75000000       0.25000000 </v>
    <v>       0.75000000       0.75000000       0.25000000 </v>
    <v>       0.25000000       0.25000000       0.75000000 </v>
    <v>       0.75000000       0.25000000       0.75000000 </v>
    <v>       0.25000000       0.75000000       0.75000000 </v>
    <v>       0.75000000       0.75000000       0.75000000 </v>
   </varray>
  </structure>
  <varray name="forces" >
   <v>      -0.12953011       0.00000000       0.00000000 </v>
   <v>       0.06673489       0.00000000       0.00000000 </v>
   <v>      -0.00717237       0.00000000       0.00000000 </v>
   <v>       0.00670320       0.00000000       0.00000000 </v>
   <v>      -0.00717237       0.00000000       0.00000000 </v>
   <v>       0.00670320       0.00000000       0.00000000 </v>
   <v>       0.00491307       0.00000000       0.00000000 </v>
   <v>       0.00215023       0.00000000       0.00000000 </v>
   <v>       0.00733880       0.00528467       0.00528467 </v>
   <v>       0.00682877      -0.00505303      -0.00505303 </v>
   <v>       0.00733880      -0.00528467       0.00528467 </v>
   <v>       0.00682877       0.00505303      -0.00505303 </v>
   <v>       0.00733880       0.00528467      -0.00528467 </v>
   <v>       0.00682877      -0.00505303       0.00505303 </v>
   <v>       0.00733880      -0.00528467      -0.00528467 </v>
   <v>       0.00682877       0.00505303       0.00505303 </v>
  </varray>
  <varray name="stress" >
   <v>      -0.29462129       0.00000000       0.00000000 </v>
   <v>       0.00000000      -0.34610775       0.00000000 </v>
   <v>       0.00000000       0.00000000      -0.34610775 </v>
  </varray>
  <energy>
   <i name="e_fr_energy">   -163.95659633 </i>
   <i name="e_wo_entrp">   -163.95613873 </i>
   <i name="e_0_energy">     -0.00091518 </i>
  </energy>
  <time name="totalsc">  275.05  275.46</time>
  <eigenvalues>
   <array>
    <dimension dim="1">band</dimension>
    <dimension dim="2">kpoint</dimension>
    <dimension dim="3">spin</dimension>
    <field>eigene</field>
    <field>occ</field>
    <set>
     <set comment="spin 1">
      <set comment="kpoint 1">
       <r>  -32.2148    1.0000 </r>
       <r>  -32.2148    1.0000 </r>
       <r>  -32.2148    1.0000 </r>
       <r>  -32.2091    1.0000 </r>
       <r>  -32.2091    1.0000 </r>
       <r>  -32.2091    1.0000 </r>
       <r>  -31.9174    1.0000 </r>
       <r>  -31.9174    1.0000 </r>
       <r>  -31.9173    1.0000 </r>
       <r>  -31.9084    1.0000 </r>
       <r>  -31.9084    1.0000 </r>
       <r>  -31.8963    1.0000 </r>
       <r>  -31.8898    1.0000 </r>
       <r>  -31.8741    1.0000 </r>
       <r>  -31.8740    1.0000 </r>
       <r>  -31.7220    1.0000 </r>
       <r>  -31.7219    1.0000 </r>
       <r>  -31.7218    1.0000 </r>
       <r>  -31.7037    1.0000 </r>
       <r>  -31.7036    1.0000 </r>
       <r>  -31.7036    1.0000 </r>
       <r>  -31.6828    1.0000 </r>
       <r>  -31.6828    1.0000 </r>
       <r>  -31.6828    1.0000 </r>
       <r>  -31.4404    1.0000 </r>
       <r>  -31.4404    1.0000 </r>
       <r>  -31.4403    1.0000 </r>
       <r>  -31.4164    1.0000 </r>
       <r>  -31.4164    1.0000 </r>
       <r>  -31.4004    1.0000 </r>
       <r>  -31.2490    1.0000 </r>
       <r>  -31.2490    1.0000 </r>
       <r>  -31.2489    1.0000 </r>
       <r>  -31.2410    1.0000 </r>
       <r>  -31.2408    1.0000 </r>
       <r>  -31.2407    1.0000 </r>
       <r>  -31.2331    1.0000 </r>
       <r>  -31.2330    1.0000 </r>
       <r>  -31.2328    1.0000 </r>
       <r>  -31.0993    1.0000 </r>
       <r>  -31.0993    1.0000 </r>
       <r>  -31.0993    1.0000 </r>
       <r>  -31.0928    1.0000 </r>
       <r>  -31.0928    1.0000 </r>
       <r>  -31.0928    1.0000 </r>
       <r>  -31.0796    1.0000 </r>
       <r>  -31.0663    1.0000 </r>
       <r>  -31.0663    1.0000 </r>
       <r>    3.4124    1.0000 </r>
       <r>    6.7372    1.0000 </r>
       <r>    6.7375    1.0000 </r>
       <r>    6.7379    1.0000 </r>
       <r>    6.7931    1.0000 </r>
       <r>    6.7933    1.0000 </r>
       <r>    6.7934    1.0000 </r>
       <r>    6.8259    1.0000 </r>
       <r>    6.8259    1.0000 </r>
       <r>    7.0643    1.0000 </r>
       <r>    7.0645    1.0000 </r>
       <r>    7.0647    1.0000 </r>
       <r>    7.5415    1.0000 </r>
       <r>    7.5420    1.0000 </r>
       <r>    7.5424    1.0000 </r>
       <r>    8.6942    1.0000 </r>
       <r>    8.7948    1.0000 </r>
       <r>    8.7950    1.0000 </r>
       <r>    8.7963    1.0000 </r>
       <r>    8.7966    1.0000 </r>
       <r>    8.7972    1.0000 </r>
       <r>    8.8175    1.0000 </r>
       <r>    8.8176    1.0000 </r>
       <r>    8.8178    1.0000 </r>
       <r>    9.0865    1.0000 </r>
       <r>    9.0877    1.0000 </r>
       <r>    9.0892    1.0000 </r>
       <r>    9.1321    1.0000 </r>
       <r>    9.1322    1.0000 </r>
       <r>    9.1759    1.0000 </r>
       <r>    9.6855    1.0000 </r>
       <r>    9.6887    1.0000 </r>
       <r>    9.6920    1.0000 </r>
       <r>   10.4021    1.0000 </r>
       <r>   10.4022    1.0000 </r>
       <r>   10.4752    1.0000 </r>
       <r>   10.6677    1.0000 </r>
       <r>   10.6686    1.0000 </r>
       <r>   10.6695    1.0000 </r>
       <r>   10.8061    1.0000 </r>
       <r>   10.8063    1.0000 </r>
       <r>   10.8064    1.0000 </r>
       <r>   11.0629    1.0000 </r>
       <r>   11.0646    1.0000 </r>
       <r>   11.0661    1.0000 </r>
       <r>   11.2501    1.0000 </r>
       <r>   11.2515    1.0000 </r>
       <r>   11.2531    1.0000 </r>
       <r>   11.9954    0.0000 </r>
       <r>   11.9975    0.0000 </r>
       <r>   12.0000    0.0000 </r>
       <r>   12.0198    0.0000 </r>
       <r>   12.0209    0.0000 </r>
       <r>   12.0219    0.0000 </r>
       <r>   12.3134    0.0000 </r>
       <r>   12.3142    0.0000 </r>
       <r>   12.3149    0.0000 </r>
       <r>   12.4978    0.0000 </r>
       <r>   12.4991    0.0000 </r>
       <r>   12.5004    0.0000 </r>
       <r>   12.5331    0.0000 </r>
       <r>   12.5341    0.0000 </r>
       <r>   12.5350    0.0000 </r>
       <r>   12.5415    0.0000 </r>
       <r>   12.5415    0.0000 </r>
       <r>   12.6332    0.0000 </r>
       <r>   12.6334    0.0000 </r>
       <r>   12.6337    0.0000 </r>
      </set>
      <set comment="kpoint 2">
       <r>  -32.1979    1.0000 </r>
       <r>  -32.1979    1.0000 </r>
       <r>  -32.1962    1.0000 </r>
       <r>  -32.1911    1.0000 </r>
       <r>  -32.1798    1.0000 </r>
       <r>  -32.1798    1.0000 </r>
       <r>  -31.9450    1.0000 </r>
       <r>  -31.9450    1.0000 </r>
       <r>  -31.9277    1.0000 </r>
       <r>  -31.9236    1.0000 </r>
       <r>  -31.9176    1.0000 </r>
       <r>  -31.9150    1.0000 </r>
       <r>  -31.8962    1.0000 </r>
       <r>  -31.8790    1.0000 </r>
       <r>  -31.8580    1.0000 </r>
       <r>  -31.7872    1.0000 </r>
       <r>  -31.7872    1.0000 </r>
       <r>  -31.7324    1.0000 </r>
       <r>  -31.7248    1.0000 </r>
       <r>  -31.7033    1.0000 </r>
       <r>  -31.7033    1.0000 </r>
       <r>  -31.6973    1.0000 </r>
       <r>  -31.6845    1.0000 </r>
       <r>  -31.6845    1.0000 </r>
       <r>  -31.4160    1.0000 </r>
       <r>  -31.4089    1.0000 </r>
       <r>  -31.3851    1.0000 </r>
       <r>  -31.3850    1.0000 </r>
       <r>  -31.3769    1.0000 </r>
       <r>  -31.3596    1.0000 </r>
       <r>  -31.2500    1.0000 </r>
       <r>  -31.2499    1.0000 </r>
       <r>  -31.2481    1.0000 </r>
       <r>  -31.2345    1.0000 </r>
       <r>  -31.2344    1.0000 </r>
       <r>  -31.2296    1.0000 </r>
       <r>  -31.2224    1.0000 </r>
       <r>  -31.2224    1.0000 </r>
       <r>  -31.2206    1.0000 </r>
       <r>  -31.1177    1.0000 </r>
       <r>  -31.1177    1.0000 </r>
       <r>  -31.1150    1.0000 </r>
       <r>  -31.1102    1.0000 </r>
       <r>  -31.1102    1.0000 </r>
       <r>  -31.0979    1.0000 </r>
       <r>  -31.0979    1.0000 </r>
       <r>  -31.0769    1.0000 </r>
       <r>  -31.0719    1.0000 </r>
       <r>    3.5894    1.0000 </r>
       <r>    6.4357    1.0000 </r>
       <r>    6.7897    1.0000 </r>
       <r>    6.7898    1.0000 </r>
       <r>    6.8783    1.0000 </r>
       <r>    6.8804    1.0000 </r>
       <r>    6.8804    1.0000 </r>
       <r>    6.9173    1.0000 </r>
       <r>    6.9318    1.0000 </r>
       <r>    6.9412    1.0000 </r>
       <r>    7.1140    1.0000 </r>
       <r>    7.1140    1.0000 </r>
       <r>    7.5745    1.0000 </r>
       <r>    7.5745    1.0000 </r>
       <r>    7.7734    1.0000 </r>
       <r>    8.5437    1.0000 </r>
       <r>    8.5944    1.0000 </r>
       <r>    8.7064    1.0000 </r>
       <r>    8.7114    1.0000 </r>
       <r>    8.7712    1.0000 </r>
       <r>    8.7896    1.0000 </r>
       <r>    8.8721    1.0000 </r>
       <r>    8.8721    1.0000 </r>
       <r>    8.9348    1.0000 </r>
       <r>    8.9349    1.0000 </r>
       <r>    8.9464    1.0000 </r>
       <r>    9.0597    1.0000 </r>
       <r>    9.0597    1.0000 </r>
       <r>    9.3631    1.0000 </r>
       <r>    9.3768    1.0000 </r>
       <r>    9.5622    1.0000 </r>
       <r>    9.5623    1.0000 </r>
       <r>   10.1444    1.0000 </r>
       <r>   10.3599    1.0000 </r>
       <r>   10.3910    1.0000 </r>
       <r>   10.4001    1.0000 </r>
       <r>   10.4003    1.0000 </r>
       <r>   10.5231    1.0000 </r>
       <r>   10.5690    1.0000 </r>
       <r>   10.6908    1.0000 </r>
       <r>   10.6910    1.0000 </r>
       <r>   10.7532    1.0000 </r>
       <r>   11.0723    1.0000 </r>
       <r>   11.0724    1.0000 </r>
       <r>   11.3170    1.0000 </r>
       <r>   11.3567    0.7789 </r>
       <r>   11.3573    0.7538 </r>
       <r>   11.3923    0.0000 </r>
       <r>   11.3929    0.0000 </r>
       <r>   11.5293    0.0000 </r>
       <r>   11.7039    0.0000 </r>
       <r>   11.7043    0.0000 </r>
       <r>   11.7175    0.0000 </r>
       <r>   11.7390    0.0000 </r>
       <r>   11.8630    0.0000 </r>
       <r>   12.3815    0.0000 </r>
       <r>   12.3816    0.0000 </r>
       <r>   12.4166    0.0000 </r>
       <r>   12.4252    0.0000 </r>
       <r>   12.4253    0.0000 </r>
       <r>   12.5353    0.0000 </r>
       <r>   12.5656    0.0000 </r>
       <r>   12.5656    0.0000 </r>
       <r>   12.5924    0.0000 </r>
       <r>   12.6510    0.0000 </r>
       <r>   12.7773    0.0000 </r>
       <r>   12.7878    0.0000 </r>
       <r>   12.7933    0.0000 </r>
      </set>
      <set comment="kpoint 3">
       <r>  -32.1616    1.0000 </r>
       <r>  -32.1616    1.0000 </r>
       <r>  -32.1599    1.0000 </r>
       <r>  -32.1564    1.0000 </r>
       <r>  -32.1281    1.0000 </r>
       <r>  -32.1281    1.0000 </r>
       <r>  -31.9932    1.0000 </r>
       <r>  -31.9932    1.0000 </r>
       <r>  -31.9850    1.0000 </r>
       <r>  -31.9779    1.0000 </r>
       <r>  -31.9305    1.0000 </r>
       <r>  -31.9258    1.0000 </r>
       <r>  -31.8780    1.0000 </r>
       <r>  -31.8779    1.0000 </r>
       <r>  -31.8726    1.0000 </r>
       <r>  -31.8544    1.0000 </r>
       <r>  -31.8312    1.0000 </r>
       <r>  -31.7597    1.0000 </r>
       <r>  -31.7559    1.0000 </r>
       <r>  -31.7241    1.0000 </r>
       <r>  -31.7004    1.0000 </r>
       <r>  -31.7004    1.0000 </r>
       <r>  -31.6877    1.0000 </r>
       <r>  -31.6877    1.0000 </r>
       <r>  -31.3846    1.0000 </r>
       <r>  -31.3666    1.0000 </r>
       <r>  -31.3165    1.0000 </r>
       <r>  -31.3155    1.0000 </r>
       <r>  -31.3155    1.0000 </r>
       <r>  -31.3035    1.0000 </r>
       <r>  -31.2759    1.0000 </r>
       <r>  -31.2480    1.0000 </r>
       <r>  -31.2478    1.0000 </r>
       <r>  -31.2373    1.0000 </r>
       <r>  -31.2372    1.0000 </r>
       <r>  -31.1975    1.0000 </r>
       <r>  -31.1951    1.0000 </r>
       <r>  -31.1951    1.0000 </r>
       <r>  -31.1880    1.0000 </r>
       <r>  -31.1614    1.0000 </r>
       <r>  -31.1490    1.0000 </r>
       <r>  -31.1490    1.0000 </r>
       <r>  -31.1457    1.0000 </r>
       <r>  -31.1440    1.0000 </r>
       <r>  -31.1127    1.0000 </r>
       <r>  -31.1127    1.0000 </r>
       <r>  -31.0973    1.0000 </r>
       <r>  -31.0899    1.0000 </r>
       <r>    3.9344    1.0000 </r>
       <r>    5.7330    1.0000 </r>
       <r>    6.8922    1.0000 </r>
       <r>    6.8922    1.0000 </r>
       <r>    7.0350    1.0000 </r>
       <r>    7.0350    1.0000 </r>
       <r>    7.0981    1.0000 </r>
       <r>    7.1258    1.0000 </r>
       <r>    7.1441    1.0000 </r>
       <r>    7.1566    1.0000 </r>
       <r>    7.1566    1.0000 </r>
       <r>    7.2231    1.0000 </r>
       <r>    7.5580    1.0000 </r>
       <r>    7.5580    1.0000 </r>
       <r>    7.7773    1.0000 </r>
       <r>    8.1245    1.0000 </r>
       <r>    8.2867    1.0000 </r>
       <r>    8.4661    1.0000 </r>
       <r>    8.6565    1.0000 </r>
       <r>    8.7261    1.0000 </r>
       <r>    8.7284    1.0000 </r>
       <r>    8.7434    1.0000 </r>
       <r>    9.0394    1.0000 </r>
       <r>    9.0394    1.0000 </r>
       <r>    9.1387    1.0000 </r>
       <r>    9.1394    1.0000 </r>
       <r>    9.1441    1.0000 </r>
       <r>    9.1447    1.0000 </r>
       <r>    9.5330    1.0000 </r>
       <r>    9.5330    1.0000 </r>
       <r>    9.7057    1.0000 </r>
       <r>    9.7315    1.0000 </r>
       <r>   10.0311    1.0000 </r>
       <r>   10.0311    1.0000 </r>
       <r>   10.2509    1.0000 </r>
       <r>   10.2509    1.0000 </r>
       <r>   10.3310    1.0000 </r>
       <r>   10.3542    1.0000 </r>
       <r>   10.3749    1.0000 </r>
       <r>   10.4083    1.0000 </r>
       <r>   10.6498    1.0000 </r>
       <r>   10.6499    1.0000 </r>
       <r>   10.7060    1.0000 </r>
       <r>   10.9510    1.0000 </r>
       <r>   10.9512    1.0000 </r>
       <r>   10.9772    1.0000 </r>
       <r>   11.2171    1.0000 </r>
       <r>   11.2602    1.0000 </r>
       <r>   11.3560    0.8073 </r>
       <r>   11.4398    0.0000 </r>
       <r>   11.4398    0.0000 </r>
       <r>   11.6282    0.0000 </r>
       <r>   11.6283    0.0000 </r>
       <r>   11.7826    0.0000 </r>
       <r>   11.9218    0.0000 </r>
       <r>   12.1744    0.0000 </r>
       <r>   12.2665    0.0000 </r>
       <r>   12.2665    0.0000 </r>
       <r>   12.4191    0.0000 </r>
       <r>   12.4192    0.0000 </r>
       <r>   12.5765    0.0000 </r>
       <r>   12.6888    0.0000 </r>
       <r>   12.7153    0.0000 </r>
       <r>   12.7423    0.0000 </r>
       <r>   12.7815    0.0000 </r>
       <r>   12.7918    0.0000 </r>
       <r>   12.8269    0.0000 </r>
       <r>   12.8269    0.0000 </r>
      </set>
      <set comment="kpoint 4">
       <r>  -32.1106    1.0000 </r>
       <r>  -32.1106    1.0000 </r>
       <r>  -32.1085    1.0000 </r>
       <r>  -32.1074    1.0000 </r>
       <r>  -32.0573    1.0000 </r>
       <r>  -32.0570    1.0000 </r>
       <r>  -32.0516    1.0000 </r>
       <r>  -32.0514    1.0000 </r>
       <r>  -32.0481    1.0000 </r>
       <r>  -32.0457    1.0000 </r>
       <r>  -31.9713    1.0000 </r>
       <r>  -31.9713    1.0000 </r>
       <r>  -31.9335    1.0000 </r>
       <r>  -31.9314    1.0000 </r>
       <r>  -31.8396    1.0000 </r>
       <r>  -31.8232    1.0000 </r>
       <r>  -31.8004    1.0000 </r>
       <r>  -31.7965    1.0000 </r>
       <r>  -31.7884    1.0000 </r>
       <r>  -31.7589    1.0000 </r>
       <r>  -31.6963    1.0000 </r>
       <r>  -31.6963    1.0000 </r>
       <r>  -31.6918    1.0000 </r>
       <r>  -31.6918    1.0000 </r>
       <r>  -31.3501    1.0000 </r>
       <r>  -31.3118    1.0000 </r>
       <r>  -31.2998    1.0000 </r>
       <r>  -31.2517    1.0000 </r>
       <r>  -31.2516    1.0000 </r>
       <r>  -31.2516    1.0000 </r>
       <r>  -31.2441    1.0000 </r>
       <r>  -31.2434    1.0000 </r>
       <r>  -31.2429    1.0000 </r>
       <r>  -31.2406    1.0000 </r>
       <r>  -31.2400    1.0000 </r>
       <r>  -31.2276    1.0000 </r>
       <r>  -31.1930    1.0000 </r>
       <r>  -31.1930    1.0000 </r>
       <r>  -31.1923    1.0000 </r>
       <r>  -31.1897    1.0000 </r>
       <r>  -31.1645    1.0000 </r>
       <r>  -31.1645    1.0000 </r>
       <r>  -31.1610    1.0000 </r>
       <r>  -31.1516    1.0000 </r>
       <r>  -31.1358    1.0000 </r>
       <r>  -31.1358    1.0000 </r>
       <r>  -31.1263    1.0000 </r>
       <r>  -31.1175    1.0000 </r>
       <r>    4.4288    1.0000 </r>
       <r>    5.0430    1.0000 </r>
       <r>    7.0200    1.0000 </r>
       <r>    7.0200    1.0000 </r>
       <r>    7.1255    1.0000 </r>
       <r>    7.1256    1.0000 </r>
       <r>    7.2322    1.0000 </r>
       <r>    7.2323    1.0000 </r>
       <r>    7.3644    1.0000 </r>
       <r>    7.3729    1.0000 </r>
       <r>    7.4295    1.0000 </r>
       <r>    7.4295    1.0000 </r>
       <r>    7.5038    1.0000 </r>
       <r>    7.6092    1.0000 </r>
       <r>    7.6159    1.0000 </r>
       <r>    7.7099    1.0000 </r>
       <r>    7.9084    1.0000 </r>
       <r>    8.0523    1.0000 </r>
       <r>    8.6531    1.0000 </r>
       <r>    8.6744    1.0000 </r>
       <r>    8.6832    1.0000 </r>
       <r>    8.6967    1.0000 </r>
       <r>    9.2877    1.0000 </r>
       <r>    9.2877    1.0000 </r>
       <r>    9.4260    1.0000 </r>
       <r>    9.4272    1.0000 </r>
       <r>    9.4331    1.0000 </r>
       <r>    9.4343    1.0000 </r>
       <r>    9.5680    1.0000 </r>
       <r>    9.5680    1.0000 </r>
       <r>    9.8265    1.0000 </r>
       <r>    9.8265    1.0000 </r>
       <r>    9.8706    1.0000 </r>
       <r>    9.8707    1.0000 </r>
       <r>   10.0041    1.0000 </r>
       <r>   10.0041    1.0000 </r>
       <r>   10.1490    1.0000 </r>
       <r>   10.1697    1.0000 </r>
       <r>   10.2899    1.0000 </r>
       <r>   10.2902    1.0000 </r>
       <r>   10.3220    1.0000 </r>
       <r>   10.3435    1.0000 </r>
       <r>   10.3633    1.0000 </r>
       <r>   10.3648    1.0000 </r>
       <r>   10.6738    1.0000 </r>
       <r>   10.6756    1.0000 </r>
       <r>   10.8888    1.0000 </r>
       <r>   11.1136    1.0000 </r>
       <r>   11.4105    0.0000 </r>
       <r>   11.7834    0.0000 </r>
       <r>   11.7834    0.0000 </r>
       <r>   11.8299    0.0000 </r>
       <r>   11.9073    0.0000 </r>
       <r>   11.9075    0.0000 </r>
       <r>   12.0545    0.0000 </r>
       <r>   12.0546    0.0000 </r>
       <r>   12.1910    0.0000 </r>
       <r>   12.1911    0.0000 </r>
       <r>   12.2025    0.0000 </r>
       <r>   12.3817    0.0000 </r>
       <r>   12.6330    0.0000 </r>
       <r>   12.6815    0.0000 </r>
       <r>   12.6926    0.0000 </r>
       <r>   12.7760    0.0000 </r>
       <r>   12.7767    0.0000 </r>
       <r>   12.8069    0.0000 </r>
       <r>   12.8235    0.0000 </r>
       <r>   12.8755    0.0000 </r>
      </set>
      <set comment="kpoint 5">
       <r>  -32.1979    1.0000 </r>
       <r>  -32.1979    1.0000 </r>
       <r>  -32.1962    1.0000 </r>
       <r>  -32.1911    1.0000 </r>
       <r>  -32.1798    1.0000 </r>
       <r>  -32.1798    1.0000 </r>
       <r>  -31.9450    1.0000 </r>
       <r>  -31.9449    1.0000 </r>
       <r>  -31.9277    1.0000 </r>
       <r>  -31.9236    1.0000 </r>
       <r>  -31.9177    1.0000 </r>
       <r>  -31.9149    1.0000 </r>
       <r>  -31.8962    1.0000 </r>
       <r>  -31.8790    1.0000 </r>
       <r>  -31.8579    1.0000 </r>
       <r>  -31.7874    1.0000 </r>
       <r>  -31.7871    1.0000 </r>
       <r>  -31.7324    1.0000 </r>
       <r>  -31.7248    1.0000 </r>
       <r>  -31.7034    1.0000 </r>
       <r>  -31.7033    1.0000 </r>
       <r>  -31.6973    1.0000 </r>
       <r>  -31.6845    1.0000 </r>
       <r>  -31.6844    1.0000 </r>
       <r>  -31.4160    1.0000 </r>
       <r>  -31.4088    1.0000 </r>
       <r>  -31.3851    1.0000 </r>
       <r>  -31.3850    1.0000 </r>
       <r>  -31.3769    1.0000 </r>
       <r>  -31.3596    1.0000 </r>
       <r>  -31.2500    1.0000 </r>
       <r>  -31.2498    1.0000 </r>
       <r>  -31.2480    1.0000 </r>
       <r>  -31.2348    1.0000 </r>
       <r>  -31.2345    1.0000 </r>
       <r>  -31.2294    1.0000 </r>
       <r>  -31.2226    1.0000 </r>
       <r>  -31.2222    1.0000 </r>
       <r>  -31.2205    1.0000 </r>
       <r>  -31.1178    1.0000 </r>
       <r>  -31.1177    1.0000 </r>
       <r>  -31.1150    1.0000 </r>
       <r>  -31.1102    1.0000 </r>
       <r>  -31.1102    1.0000 </r>
       <r>  -31.0979    1.0000 </r>
       <r>  -31.0979    1.0000 </r>
       <r>  -31.0769    1.0000 </r>
       <r>  -31.0719    1.0000 </r>
       <r>    3.5894    1.0000 </r>
       <r>    6.4357    1.0000 </r>
       <r>    6.7895    1.0000 </r>
       <r>    6.7901    1.0000 </r>
       <r>    6.8782    1.0000 </r>
       <r>    6.8803    1.0000 </r>
       <r>    6.8806    1.0000 </r>
       <r>    6.9173    1.0000 </r>
       <r>    6.9317    1.0000 </r>
       <r>    6.9412    1.0000 </r>
       <r>    7.1139    1.0000 </r>
       <r>    7.1141    1.0000 </r>
       <r>    7.5742    1.0000 </r>
       <r>    7.5748    1.0000 </r>
       <r>    7.7733    1.0000 </r>
       <r>    8.5436    1.0000 </r>
       <r>    8.5943    1.0000 </r>
       <r>    8.7065    1.0000 </r>
       <r>    8.7114    1.0000 </r>
       <r>    8.7711    1.0000 </r>
       <r>    8.7896    1.0000 </r>
       <r>    8.8716    1.0000 </r>
       <r>    8.8727    1.0000 </r>
       <r>    8.9348    1.0000 </r>
       <r>    8.9351    1.0000 </r>
       <r>    8.9464    1.0000 </r>
       <r>    9.0584    1.0000 </r>
       <r>    9.0608    1.0000 </r>
       <r>    9.3632    1.0000 </r>
       <r>    9.3768    1.0000 </r>
       <r>    9.5599    1.0000 </r>
       <r>    9.5645    1.0000 </r>
       <r>   10.1443    1.0000 </r>
       <r>   10.3599    1.0000 </r>
       <r>   10.3905    1.0000 </r>
       <r>   10.4000    1.0000 </r>
       <r>   10.4012    1.0000 </r>
       <r>   10.5231    1.0000 </r>
       <r>   10.5691    1.0000 </r>
       <r>   10.6901    1.0000 </r>
       <r>   10.6919    1.0000 </r>
       <r>   10.7531    1.0000 </r>
       <r>   11.0721    1.0000 </r>
       <r>   11.0723    1.0000 </r>
       <r>   11.3170    1.0000 </r>
       <r>   11.3568    0.7789 </r>
       <r>   11.3583    0.7106 </r>
       <r>   11.3914    0.0000 </r>
       <r>   11.3931    0.0000 </r>
       <r>   11.5294    0.0000 </r>
       <r>   11.7030    0.0000 </r>
       <r>   11.7050    0.0000 </r>
       <r>   11.7174    0.0000 </r>
       <r>   11.7392    0.0000 </r>
       <r>   11.8631    0.0000 </r>
       <r>   12.3800    0.0000 </r>
       <r>   12.3829    0.0000 </r>
       <r>   12.4165    0.0000 </r>
       <r>   12.4247    0.0000 </r>
       <r>   12.4257    0.0000 </r>
       <r>   12.5354    0.0000 </r>
       <r>   12.5655    0.0000 </r>
       <r>   12.5656    0.0000 </r>
       <r>   12.5924    0.0000 </r>
       <r>   12.6512    0.0000 </r>
       <r>   12.7774    0.0000 </r>
       <r>   12.7889    0.0000 </r>
       <r>   12.7899    0.0000 </r>
      </set>
      <set comment="kpoint 6">
       <r>  -32.1916    1.0000 </r>
       <r>  -32.1805    1.0000 </r>
       <r>  -32.1804    1.0000 </r>
       <r>  -32.1641    1.0000 </r>
       <r>  -32.1641    1.0000 </r>
       <r>  -32.1415    1.0000 </r>
       <r>  -31.9660    1.0000 </r>
       <r>  -31.9560    1.0000 </r>
       <r>  -31.9550    1.0000 </r>
       <r>  -31.9546    1.0000 </r>
       <r>  -31.9318    1.0000 </r>
       <r>  -31.9282    1.0000 </r>
       <r>  -31.8898    1.0000 </r>
       <r>  -31.8612    1.0000 </r>
       <r>  -31.8536    1.0000 </r>
       <r>  -31.8230    1.0000 </r>
       <r>  -31.7751    1.0000 </r>
       <r>  -31.7747    1.0000 </r>
       <r>  -31.7235    1.0000 </r>
       <r>  -31.7230    1.0000 </r>
       <r>  -31.7167    1.0000 </r>
       <r>  -31.7001    1.0000 </r>
       <r>  -31.6999    1.0000 </r>
       <r>  -31.6878    1.0000 </r>
       <r>  -31.4038    1.0000 </r>
       <r>  -31.3848    1.0000 </r>
       <r>  -31.3846    1.0000 </r>
       <r>  -31.3518    1.0000 </r>
       <r>  -31.3462    1.0000 </r>
       <r>  -31.3198    1.0000 </r>
       <r>  -31.2619    1.0000 </r>
       <r>  -31.2517    1.0000 </r>
       <r>  -31.2517    1.0000 </r>
       <r>  -31.2349    1.0000 </r>
       <r>  -31.2311    1.0000 </r>
       <r>  -31.2306    1.0000 </r>
       <r>  -31.1999    1.0000 </r>
       <r>  -31.1990    1.0000 </r>
       <r>  -31.1989    1.0000 </r>
       <r>  -31.1485    1.0000 </r>
       <r>  -31.1460    1.0000 </r>
       <r>  -31.1289    1.0000 </r>
       <r>  -31.1289    1.0000 </r>
       <r>  -31.1128    1.0000 </r>
       <r>  -31.1127    1.0000 </r>
       <r>  -31.0912    1.0000 </r>
       <r>  -31.0857    1.0000 </r>
       <r>  -31.0685    1.0000 </r>
       <r>    3.7628    1.0000 </r>
       <r>    6.5133    1.0000 </r>
       <r>    6.5136    1.0000 </r>
       <r>    6.7655    1.0000 </r>
       <r>    6.9330    1.0000 </r>
       <r>    6.9341    1.0000 </r>
       <r>    7.0092    1.0000 </r>
       <r>    7.0115    1.0000 </r>
       <r>    7.0244    1.0000 </r>
       <r>    7.0246    1.0000 </r>
       <r>    7.0340    1.0000 </r>
       <r>    7.1810    1.0000 </r>
       <r>    7.6327    1.0000 </r>
       <r>    7.8126    1.0000 </r>
       <r>    7.8136    1.0000 </r>
       <r>    8.4215    1.0000 </r>
       <r>    8.5956    1.0000 </r>
       <r>    8.6140    1.0000 </r>
       <r>    8.6145    1.0000 </r>
       <r>    8.7772    1.0000 </r>
       <r>    8.8402    1.0000 </r>
       <r>    8.8414    1.0000 </r>
       <r>    8.8943    1.0000 </r>
       <r>    8.8955    1.0000 </r>
       <r>    8.9054    1.0000 </r>
       <r>    8.9939    1.0000 </r>
       <r>    9.0627    1.0000 </r>
       <r>    9.0918    1.0000 </r>
       <r>    9.2812    1.0000 </r>
       <r>    9.4109    1.0000 </r>
       <r>    9.4130    1.0000 </r>
       <r>    9.9111    1.0000 </r>
       <r>    9.9184    1.0000 </r>
       <r>   10.2514    1.0000 </r>
       <r>   10.2549    1.0000 </r>
       <r>   10.2635    1.0000 </r>
       <r>   10.3118    1.0000 </r>
       <r>   10.3610    1.0000 </r>
       <r>   10.5017    1.0000 </r>
       <r>   10.7242    1.0000 </r>
       <r>   10.8493    1.0000 </r>
       <r>   10.9551    1.0000 </r>
       <r>   10.9607    1.0000 </r>
       <r>   11.0983    1.0000 </r>
       <r>   11.1004    1.0000 </r>
       <r>   11.1696    1.0000 </r>
       <r>   11.1707    1.0000 </r>
       <r>   11.2015    1.0000 </r>
       <r>   11.3994    0.0000 </r>
       <r>   11.4013    0.0000 </r>
       <r>   11.4786    0.0000 </r>
       <r>   11.5041    0.0000 </r>
       <r>   11.5766    0.0000 </r>
       <r>   11.5797    0.0000 </r>
       <r>   12.0827    0.0000 </r>
       <r>   12.0885    0.0000 </r>
       <r>   12.2685    0.0000 </r>
       <r>   12.4013    0.0000 </r>
       <r>   12.4549    0.0000 </r>
       <r>   12.4575    0.0000 </r>
       <r>   12.5563    0.0000 </r>
       <r>   12.5711    0.0000 </r>
       <r>   12.5792    0.0000 </r>
       <r>   12.5801    0.0000 </r>
       <r>   12.6317    0.0000 </r>
       <r>   12.7601    0.0000 </r>
       <r>   12.7856    0.0000 </r>
       <r>   12.8690    0.0000 </r>
      </set>
      <set comment="kpoint 7">
       <r>  -32.1646    1.0000 </r>
       <r>  -32.1475    1.0000 </r>
       <r>  -32.1468    1.0000 </r>
       <r>  -32.1339    1.0000 </r>
       <r>  -32.1161    1.0000 </r>
       <r>  -32.0832    1.0000 </r>
       <r>  -32.0062    1.0000 </r>
       <r>  -32.0040    1.0000 </r>
       <r>  -31.9987    1.0000 </r>
       <r>  -31.9769    1.0000 </r>
       <r>  -31.9638    1.0000 </r>
       <r>  -31.9480    1.0000 </r>
       <r>  -31.8919    1.0000 </r>
       <r>  -31.8678    1.0000 </r>
       <r>  -31.8458    1.0000 </r>
       <r>  -31.8397    1.0000 </r>
       <r>  -31.8251    1.0000 </r>
       <r>  -31.7702    1.0000 </r>
       <r>  -31.7542    1.0000 </r>
       <r>  -31.7286    1.0000 </r>
       <r>  -31.7205    1.0000 </r>
       <r>  -31.7178    1.0000 </r>
       <r>  -31.7050    1.0000 </r>
       <r>  -31.6940    1.0000 </r>
       <r>  -31.3872    1.0000 </r>
       <r>  -31.3672    1.0000 </r>
       <r>  -31.3366    1.0000 </r>
       <r>  -31.3007    1.0000 </r>
       <r>  -31.2925    1.0000 </r>
       <r>  -31.2822    1.0000 </r>
       <r>  -31.2710    1.0000 </r>
       <r>  -31.2674    1.0000 </r>
       <r>  -31.2577    1.0000 </r>
       <r>  -31.2351    1.0000 </r>
       <r>  -31.2309    1.0000 </r>
       <r>  -31.2034    1.0000 </r>
       <r>  -31.2004    1.0000 </r>
       <r>  -31.1835    1.0000 </r>
       <r>  -31.1752    1.0000 </r>
       <r>  -31.1676    1.0000 </r>
       <r>  -31.1640    1.0000 </r>
       <r>  -31.1540    1.0000 </r>
       <r>  -31.1529    1.0000 </r>
       <r>  -31.1407    1.0000 </r>
       <r>  -31.1207    1.0000 </r>
       <r>  -31.1050    1.0000 </r>
       <r>  -31.0955    1.0000 </r>
       <r>  -31.0768    1.0000 </r>
       <r>    4.1001    1.0000 </r>
       <r>    5.8416    1.0000 </r>
       <r>    6.6314    1.0000 </r>
       <r>    6.7700    1.0000 </r>
       <r>    7.0372    1.0000 </r>
       <r>    7.1753    1.0000 </r>
       <r>    7.1788    1.0000 </r>
       <r>    7.1960    1.0000 </r>
       <r>    7.2037    1.0000 </r>
       <r>    7.2326    1.0000 </r>
       <r>    7.2550    1.0000 </r>
       <r>    7.2985    1.0000 </r>
       <r>    7.6588    1.0000 </r>
       <r>    7.7828    1.0000 </r>
       <r>    7.8304    1.0000 </r>
       <r>    8.1832    1.0000 </r>
       <r>    8.2516    1.0000 </r>
       <r>    8.4232    1.0000 </r>
       <r>    8.7190    1.0000 </r>
       <r>    8.7731    1.0000 </r>
       <r>    8.7883    1.0000 </r>
       <r>    8.8305    1.0000 </r>
       <r>    8.8753    1.0000 </r>
       <r>    8.9895    1.0000 </r>
       <r>    9.0059    1.0000 </r>
       <r>    9.0304    1.0000 </r>
       <r>    9.0742    1.0000 </r>
       <r>    9.3158    1.0000 </r>
       <r>    9.3374    1.0000 </r>
       <r>    9.5243    1.0000 </r>
       <r>    9.6429    1.0000 </r>
       <r>    9.7658    1.0000 </r>
       <r>    9.9366    1.0000 </r>
       <r>   10.0636    1.0000 </r>
       <r>   10.1033    1.0000 </r>
       <r>   10.1738    1.0000 </r>
       <r>   10.1801    1.0000 </r>
       <r>   10.1964    1.0000 </r>
       <r>   10.2578    1.0000 </r>
       <r>   10.3238    1.0000 </r>
       <r>   10.5147    1.0000 </r>
       <r>   10.5328    1.0000 </r>
       <r>   10.7615    1.0000 </r>
       <r>   10.8239    1.0000 </r>
       <r>   10.9014    1.0000 </r>
       <r>   10.9187    1.0000 </r>
       <r>   10.9263    1.0000 </r>
       <r>   11.2712    1.0000 </r>
       <r>   11.2850    1.0000 </r>
       <r>   11.4865    0.0000 </r>
       <r>   11.5037    0.0000 </r>
       <r>   11.6762    0.0000 </r>
       <r>   11.6801    0.0000 </r>
       <r>   11.8085    0.0000 </r>
       <r>   11.8925    0.0000 </r>
       <r>   12.0752    0.0000 </r>
       <r>   12.2247    0.0000 </r>
       <r>   12.3110    0.0000 </r>
       <r>   12.4271    0.0000 </r>
       <r>   12.4661    0.0000 </r>
       <r>   12.5129    0.0000 </r>
       <r>   12.5169    0.0000 </r>
       <r>   12.6304    0.0000 </r>
       <r>   12.6403    0.0000 </r>
       <r>   12.7198    0.0000 </r>
       <r>   12.7573    0.0000 </r>
       <r>   12.7897    0.0000 </r>
       <r>   12.9019    0.0000 </r>
      </set>
      <set comment="kpoint 8">
       <r>  -32.1204    1.0000 </r>
       <r>  -32.1026    1.0000 </r>
       <r>  -32.1006    1.0000 </r>
       <r>  -32.0909    1.0000 </r>
       <r>  -32.0651    1.0000 </r>
       <r>  -32.0524    1.0000 </r>
       <r>  -32.0502    1.0000 </r>
       <r>  -32.0490    1.0000 </r>
       <r>  -32.0363    1.0000 </r>
       <r>  -32.0097    1.0000 </r>
       <r>  -31.9727    1.0000 </r>
       <r>  -31.9661    1.0000 </r>
       <r>  -31.9603    1.0000 </r>
       <r>  -31.9277    1.0000 </r>
       <r>  -31.8362    1.0000 </r>
       <r>  -31.8049    1.0000 </r>
       <r>  -31.7989    1.0000 </r>
       <r>  -31.7966    1.0000 </r>
       <r>  -31.7735    1.0000 </r>
       <r>  -31.7655    1.0000 </r>
       <r>  -31.7171    1.0000 </r>
       <r>  -31.7112    1.0000 </r>
       <r>  -31.7102    1.0000 </r>
       <r>  -31.7019    1.0000 </r>
       <r>  -31.3572    1.0000 </r>
       <r>  -31.3251    1.0000 </r>
       <r>  -31.3198    1.0000 </r>
       <r>  -31.2840    1.0000 </r>
       <r>  -31.2694    1.0000 </r>
       <r>  -31.2660    1.0000 </r>
       <r>  -31.2641    1.0000 </r>
       <r>  -31.2439    1.0000 </r>
       <r>  -31.2405    1.0000 </r>
       <r>  -31.2365    1.0000 </r>
       <r>  -31.2311    1.0000 </r>
       <r>  -31.2233    1.0000 </r>
       <r>  -31.2219    1.0000 </r>
       <r>  -31.1922    1.0000 </r>
       <r>  -31.1902    1.0000 </r>
       <r>  -31.1779    1.0000 </r>
       <r>  -31.1656    1.0000 </r>
       <r>  -31.1525    1.0000 </r>
       <r>  -31.1362    1.0000 </r>
       <r>  -31.1340    1.0000 </r>
       <r>  -31.1325    1.0000 </r>
       <r>  -31.1283    1.0000 </r>
       <r>  -31.1111    1.0000 </r>
       <r>  -31.0977    1.0000 </r>
       <r>    4.5818    1.0000 </r>
       <r>    5.1772    1.0000 </r>
       <r>    6.7300    1.0000 </r>
       <r>    6.7717    1.0000 </r>
       <r>    7.1617    1.0000 </r>
       <r>    7.2532    1.0000 </r>
       <r>    7.3692    1.0000 </r>
       <r>    7.4131    1.0000 </r>
       <r>    7.4159    1.0000 </r>
       <r>    7.4949    1.0000 </r>
       <r>    7.5576    1.0000 </r>
       <r>    7.5624    1.0000 </r>
       <r>    7.6283    1.0000 </r>
       <r>    7.6688    1.0000 </r>
       <r>    7.6724    1.0000 </r>
       <r>    7.8054    1.0000 </r>
       <r>    7.9457    1.0000 </r>
       <r>    8.0847    1.0000 </r>
       <r>    8.6979    1.0000 </r>
       <r>    8.7325    1.0000 </r>
       <r>    8.7578    1.0000 </r>
       <r>    8.7698    1.0000 </r>
       <r>    9.1375    1.0000 </r>
       <r>    9.1861    1.0000 </r>
       <r>    9.2008    1.0000 </r>
       <r>    9.2391    1.0000 </r>
       <r>    9.2696    1.0000 </r>
       <r>    9.3193    1.0000 </r>
       <r>    9.5151    1.0000 </r>
       <r>    9.5908    1.0000 </r>
       <r>    9.7424    1.0000 </r>
       <r>    9.8606    1.0000 </r>
       <r>    9.9177    1.0000 </r>
       <r>    9.9619    1.0000 </r>
       <r>    9.9642    1.0000 </r>
       <r>    9.9834    1.0000 </r>
       <r>   10.0074    1.0000 </r>
       <r>   10.0783    1.0000 </r>
       <r>   10.0997    1.0000 </r>
       <r>   10.1166    1.0000 </r>
       <r>   10.2031    1.0000 </r>
       <r>   10.2347    1.0000 </r>
       <r>   10.2812    1.0000 </r>
       <r>   10.3283    1.0000 </r>
       <r>   10.3791    1.0000 </r>
       <r>   10.4394    1.0000 </r>
       <r>   11.1403    1.0000 </r>
       <r>   11.3549    0.8477 </r>
       <r>   11.6009    0.0000 </r>
       <r>   11.7218    0.0000 </r>
       <r>   11.8377    0.0000 </r>
       <r>   11.8577    0.0000 </r>
       <r>   11.8894    0.0000 </r>
       <r>   11.9293    0.0000 </r>
       <r>   11.9388    0.0000 </r>
       <r>   11.9446    0.0000 </r>
       <r>   12.1094    0.0000 </r>
       <r>   12.1966    0.0000 </r>
       <r>   12.2504    0.0000 </r>
       <r>   12.2797    0.0000 </r>
       <r>   12.2918    0.0000 </r>
       <r>   12.5844    0.0000 </r>
       <r>   12.6583    0.0000 </r>
       <r>   12.7416    0.0000 </r>
       <r>   12.7497    0.0000 </r>
       <r>   12.7695    0.0000 </r>
       <r>   12.8030    0.0000 </r>
       <r>   12.8424    0.0000 </r>
      </set>
      <set comment="kpoint 9">
       <r>  -32.1616    1.0000 </r>
       <r>  -32.1615    1.0000 </r>
       <r>  -32.1599    1.0000 </r>
       <r>  -32.1564    1.0000 </r>
       <r>  -32.1281    1.0000 </r>
       <r>  -32.1280    1.0000 </r>
       <r>  -31.9932    1.0000 </r>
       <r>  -31.9931    1.0000 </r>
       <r>  -31.9850    1.0000 </r>
       <r>  -31.9779    1.0000 </r>
       <r>  -31.9305    1.0000 </r>
       <r>  -31.9259    1.0000 </r>
       <r>  -31.8781    1.0000 </r>
       <r>  -31.8779    1.0000 </r>
       <r>  -31.8725    1.0000 </r>
       <r>  -31.8544    1.0000 </r>
       <r>  -31.8313    1.0000 </r>
       <r>  -31.7597    1.0000 </r>
       <r>  -31.7559    1.0000 </r>
       <r>  -31.7241    1.0000 </r>
       <r>  -31.7004    1.0000 </r>
       <r>  -31.7003    1.0000 </r>
       <r>  -31.6878    1.0000 </r>
       <r>  -31.6877    1.0000 </r>
       <r>  -31.3846    1.0000 </r>
       <r>  -31.3666    1.0000 </r>
       <r>  -31.3166    1.0000 </r>
       <r>  -31.3155    1.0000 </r>
       <r>  -31.3153    1.0000 </r>
       <r>  -31.3035    1.0000 </r>
       <r>  -31.2759    1.0000 </r>
       <r>  -31.2478    1.0000 </r>
       <r>  -31.2476    1.0000 </r>
       <r>  -31.2375    1.0000 </r>
       <r>  -31.2374    1.0000 </r>
       <r>  -31.1975    1.0000 </r>
       <r>  -31.1952    1.0000 </r>
       <r>  -31.1949    1.0000 </r>
       <r>  -31.1880    1.0000 </r>
       <r>  -31.1614    1.0000 </r>
       <r>  -31.1490    1.0000 </r>
       <r>  -31.1490    1.0000 </r>
       <r>  -31.1457    1.0000 </r>
       <r>  -31.1440    1.0000 </r>
       <r>  -31.1128    1.0000 </r>
       <r>  -31.1127    1.0000 </r>
       <r>  -31.0973    1.0000 </r>
       <r>  -31.0899    1.0000 </r>
       <r>    3.9344    1.0000 </r>
       <r>    5.7330    1.0000 </r>
       <r>    6.8919    1.0000 </r>
       <r>    6.8925    1.0000 </r>
       <r>    7.0348    1.0000 </r>
       <r>    7.0352    1.0000 </r>
       <r>    7.0981    1.0000 </r>
       <r>    7.1258    1.0000 </r>
       <r>    7.1441    1.0000 </r>
       <r>    7.1565    1.0000 </r>
       <r>    7.1566    1.0000 </r>
       <r>    7.2231    1.0000 </r>
       <r>    7.5577    1.0000 </r>
       <r>    7.5582    1.0000 </r>
       <r>    7.7772    1.0000 </r>
       <r>    8.1245    1.0000 </r>
       <r>    8.2867    1.0000 </r>
       <r>    8.4660    1.0000 </r>
       <r>    8.6565    1.0000 </r>
       <r>    8.7259    1.0000 </r>
       <r>    8.7286    1.0000 </r>
       <r>    8.7433    1.0000 </r>
       <r>    9.0387    1.0000 </r>
       <r>    9.0403    1.0000 </r>
       <r>    9.1385    1.0000 </r>
       <r>    9.1407    1.0000 </r>
       <r>    9.1435    1.0000 </r>
       <r>    9.1443    1.0000 </r>
       <r>    9.5306    1.0000 </r>
       <r>    9.5354    1.0000 </r>
       <r>    9.7057    1.0000 </r>
       <r>    9.7315    1.0000 </r>
       <r>   10.0307    1.0000 </r>
       <r>   10.0315    1.0000 </r>
       <r>   10.2501    1.0000 </r>
       <r>   10.2519    1.0000 </r>
       <r>   10.3308    1.0000 </r>
       <r>   10.3542    1.0000 </r>
       <r>   10.3749    1.0000 </r>
       <r>   10.4082    1.0000 </r>
       <r>   10.6490    1.0000 </r>
       <r>   10.6507    1.0000 </r>
       <r>   10.7061    1.0000 </r>
       <r>   10.9502    1.0000 </r>
       <r>   10.9522    1.0000 </r>
       <r>   10.9770    1.0000 </r>
       <r>   11.2171    1.0000 </r>
       <r>   11.2601    1.0000 </r>
       <r>   11.3563    0.7988 </r>
       <r>   11.4392    0.0000 </r>
       <r>   11.4400    0.0000 </r>
       <r>   11.6281    0.0000 </r>
       <r>   11.6284    0.0000 </r>
       <r>   11.7827    0.0000 </r>
       <r>   11.9219    0.0000 </r>
       <r>   12.1743    0.0000 </r>
       <r>   12.2663    0.0000 </r>
       <r>   12.2666    0.0000 </r>
       <r>   12.4189    0.0000 </r>
       <r>   12.4194    0.0000 </r>
       <r>   12.5766    0.0000 </r>
       <r>   12.6889    0.0000 </r>
       <r>   12.7154    0.0000 </r>
       <r>   12.7422    0.0000 </r>
       <r>   12.7814    0.0000 </r>
       <r>   12.7917    0.0000 </r>
       <r>   12.8258    0.0000 </r>
       <r>   12.8281    0.0000 </r>
      </set>
      <set comment="kpoint 10">
       <r>  -32.1646    1.0000 </r>
       <r>  -32.1475    1.0000 </r>
       <r>  -32.1468    1.0000 </r>
       <r>  -32.1339    1.0000 </r>
       <r>  -32.1161    1.0000 </r>
       <r>  -32.0832    1.0000 </r>
       <r>  -32.0062    1.0000 </r>
       <r>  -32.0040    1.0000 </r>
       <r>  -31.9988    1.0000 </r>
       <r>  -31.9769    1.0000 </r>
       <r>  -31.9638    1.0000 </r>
       <r>  -31.9480    1.0000 </r>
       <r>  -31.8919    1.0000 </r>
       <r>  -31.8678    1.0000 </r>
       <r>  -31.8456    1.0000 </r>
       <r>  -31.8399    1.0000 </r>
       <r>  -31.8251    1.0000 </r>
       <r>  -31.7701    1.0000 </r>
       <r>  -31.7542    1.0000 </r>
       <r>  -31.7286    1.0000 </r>
       <r>  -31.7205    1.0000 </r>
       <r>  -31.7178    1.0000 </r>
       <r>  -31.7050    1.0000 </r>
       <r>  -31.6940    1.0000 </r>
       <r>  -31.3872    1.0000 </r>
       <r>  -31.3672    1.0000 </r>
       <r>  -31.3366    1.0000 </r>
       <r>  -31.3007    1.0000 </r>
       <r>  -31.2925    1.0000 </r>
       <r>  -31.2823    1.0000 </r>
       <r>  -31.2711    1.0000 </r>
       <r>  -31.2672    1.0000 </r>
       <r>  -31.2578    1.0000 </r>
       <r>  -31.2347    1.0000 </r>
       <r>  -31.2313    1.0000 </r>
       <r>  -31.2034    1.0000 </r>
       <r>  -31.2004    1.0000 </r>
       <r>  -31.1835    1.0000 </r>
       <r>  -31.1752    1.0000 </r>
       <r>  -31.1676    1.0000 </r>
       <r>  -31.1640    1.0000 </r>
       <r>  -31.1540    1.0000 </r>
       <r>  -31.1529    1.0000 </r>
       <r>  -31.1407    1.0000 </r>
       <r>  -31.1207    1.0000 </r>
       <r>  -31.1050    1.0000 </r>
       <r>  -31.0955    1.0000 </r>
       <r>  -31.0768    1.0000 </r>
       <r>    4.1001    1.0000 </r>
       <r>    5.8416    1.0000 </r>
       <r>    6.6314    1.0000 </r>
       <r>    6.7700    1.0000 </r>
       <r>    7.0372    1.0000 </r>
       <r>    7.1757    1.0000 </r>
       <r>    7.1785    1.0000 </r>
       <r>    7.1960    1.0000 </r>
       <r>    7.2037    1.0000 </r>
       <r>    7.2326    1.0000 </r>
       <r>    7.2550    1.0000 </r>
       <r>    7.2985    1.0000 </r>
       <r>    7.6588    1.0000 </r>
       <r>    7.7828    1.0000 </r>
       <r>    7.8303    1.0000 </r>
       <r>    8.1831    1.0000 </r>
       <r>    8.2516    1.0000 </r>
       <r>    8.4232    1.0000 </r>
       <r>    8.7191    1.0000 </r>
       <r>    8.7733    1.0000 </r>
       <r>    8.7882    1.0000 </r>
       <r>    8.8304    1.0000 </r>
       <r>    8.8752    1.0000 </r>
       <r>    8.9893    1.0000 </r>
       <r>    9.0061    1.0000 </r>
       <r>    9.0304    1.0000 </r>
       <r>    9.0743    1.0000 </r>
       <r>    9.3158    1.0000 </r>
       <r>    9.3374    1.0000 </r>
       <r>    9.5244    1.0000 </r>
       <r>    9.6429    1.0000 </r>
       <r>    9.7658    1.0000 </r>
       <r>    9.9366    1.0000 </r>
       <r>   10.0636    1.0000 </r>
       <r>   10.1033    1.0000 </r>
       <r>   10.1742    1.0000 </r>
       <r>   10.1798    1.0000 </r>
       <r>   10.1962    1.0000 </r>
       <r>   10.2578    1.0000 </r>
       <r>   10.3238    1.0000 </r>
       <r>   10.5150    1.0000 </r>
       <r>   10.5326    1.0000 </r>
       <r>   10.7615    1.0000 </r>
       <r>   10.8239    1.0000 </r>
       <r>   10.9015    1.0000 </r>
       <r>   10.9185    1.0000 </r>
       <r>   10.9265    1.0000 </r>
       <r>   11.2711    1.0000 </r>
       <r>   11.2851    1.0000 </r>
       <r>   11.4865    0.0000 </r>
       <r>   11.5037    0.0000 </r>
       <r>   11.6764    0.0000 </r>
       <r>   11.6799    0.0000 </r>
       <r>   11.8085    0.0000 </r>
       <r>   11.8925    0.0000 </r>
       <r>   12.0753    0.0000 </r>
       <r>   12.2246    0.0000 </r>
       <r>   12.3109    0.0000 </r>
       <r>   12.4270    0.0000 </r>
       <r>   12.4662    0.0000 </r>
       <r>   12.5129    0.0000 </r>
       <r>   12.5169    0.0000 </r>
       <r>   12.6305    0.0000 </r>
       <r>   12.6404    0.0000 </r>
       <r>   12.7197    0.0000 </r>
       <r>   12.7572    0.0000 </r>
       <r>   12.7898    0.0000 </r>
       <r>   12.9038    0.0000 </r>
      </set>
      <set comment="kpoint 11">
       <r>  -32.1485    1.0000 </r>
       <r>  -32.1217    1.0000 </r>
       <r>  -32.1214    1.0000 </r>
       <r>  -32.0931    1.0000 </r>
       <r>  -32.0931    1.0000 </r>
       <r>  -32.0253    1.0000 </r>
       <r>  -32.0217    1.0000 </r>
       <r>  -32.0202    1.0000 </r>
       <r>  -32.0147    1.0000 </r>
       <r>  -32.0138    1.0000 </r>
       <r>  -31.9913    1.0000 </r>
       <r>  -31.9748    1.0000 </r>
       <r>  -31.9257    1.0000 </r>
       <r>  -31.8485    1.0000 </r>
       <r>  -31.8372    1.0000 </r>
       <r>  -31.8084    1.0000 </r>
       <r>  -31.8075    1.0000 </r>
       <r>  -31.7966    1.0000 </r>
       <r>  -31.7469    1.0000 </r>
       <r>  -31.7461    1.0000 </r>
       <r>  -31.7408    1.0000 </r>
       <r>  -31.7365    1.0000 </r>
       <r>  -31.7361    1.0000 </r>
       <r>  -31.7052    1.0000 </r>
       <r>  -31.3804    1.0000 </r>
       <r>  -31.3521    1.0000 </r>
       <r>  -31.3516    1.0000 </r>
       <r>  -31.2909    1.0000 </r>
       <r>  -31.2908    1.0000 </r>
       <r>  -31.2855    1.0000 </r>
       <r>  -31.2669    1.0000 </r>
       <r>  -31.2583    1.0000 </r>
       <r>  -31.2573    1.0000 </r>
       <r>  -31.2371    1.0000 </r>
       <r>  -31.2318    1.0000 </r>
       <r>  -31.2180    1.0000 </r>
       <r>  -31.2053    1.0000 </r>
       <r>  -31.2047    1.0000 </r>
       <r>  -31.1684    1.0000 </r>
       <r>  -31.1682    1.0000 </r>
       <r>  -31.1560    1.0000 </r>
       <r>  -31.1370    1.0000 </r>
       <r>  -31.1368    1.0000 </r>
       <r>  -31.1333    1.0000 </r>
       <r>  -31.1332    1.0000 </r>
       <r>  -31.1220    1.0000 </r>
       <r>  -31.0879    1.0000 </r>
       <r>  -31.0728    1.0000 </r>
       <r>    4.4207    1.0000 </r>
       <r>    6.0335    1.0000 </r>
       <r>    6.0340    1.0000 </r>
       <r>    6.6396    1.0000 </r>
       <r>    7.3073    1.0000 </r>
       <r>    7.3084    1.0000 </r>
       <r>    7.3181    1.0000 </r>
       <r>    7.3761    1.0000 </r>
       <r>    7.3950    1.0000 </r>
       <r>    7.4389    1.0000 </r>
       <r>    7.4391    1.0000 </r>
       <r>    7.4450    1.0000 </r>
       <r>    7.7816    1.0000 </r>
       <r>    7.8168    1.0000 </r>
       <r>    7.8172    1.0000 </r>
       <r>    8.1854    1.0000 </r>
       <r>    8.3368    1.0000 </r>
       <r>    8.4028    1.0000 </r>
       <r>    8.4054    1.0000 </r>
       <r>    8.7651    1.0000 </r>
       <r>    8.8860    1.0000 </r>
       <r>    8.9055    1.0000 </r>
       <r>    8.9070    1.0000 </r>
       <r>    8.9637    1.0000 </r>
       <r>    8.9652    1.0000 </r>
       <r>    8.9677    1.0000 </r>
       <r>    9.1105    1.0000 </r>
       <r>    9.1338    1.0000 </r>
       <r>    9.3832    1.0000 </r>
       <r>    9.6168    1.0000 </r>
       <r>    9.6224    1.0000 </r>
       <r>    9.7708    1.0000 </r>
       <r>    9.7995    1.0000 </r>
       <r>    9.8034    1.0000 </r>
       <r>    9.9406    1.0000 </r>
       <r>   10.0093    1.0000 </r>
       <r>   10.0150    1.0000 </r>
       <r>   10.0176    1.0000 </r>
       <r>   10.0625    1.0000 </r>
       <r>   10.2539    1.0000 </r>
       <r>   10.2930    1.0000 </r>
       <r>   10.2941    1.0000 </r>
       <r>   10.4411    1.0000 </r>
       <r>   10.4430    1.0000 </r>
       <r>   10.5777    1.0000 </r>
       <r>   10.8430    1.0000 </r>
       <r>   10.8497    1.0000 </r>
       <r>   11.1720    1.0000 </r>
       <r>   11.6310    0.0000 </r>
       <r>   11.6323    0.0000 </r>
       <r>   11.6975    0.0000 </r>
       <r>   11.8160    0.0000 </r>
       <r>   11.8197    0.0000 </r>
       <r>   11.8262    0.0000 </r>
       <r>   11.8949    0.0000 </r>
       <r>   12.1907    0.0000 </r>
       <r>   12.1973    0.0000 </r>
       <r>   12.2392    0.0000 </r>
       <r>   12.2894    0.0000 </r>
       <r>   12.3889    0.0000 </r>
       <r>   12.3939    0.0000 </r>
       <r>   12.4335    0.0000 </r>
       <r>   12.4832    0.0000 </r>
       <r>   12.4846    0.0000 </r>
       <r>   12.5879    0.0000 </r>
       <r>   12.6655    0.0000 </r>
       <r>   12.7965    0.0000 </r>
       <r>   12.8108    0.0000 </r>
      </set>
      <set comment="kpoint 12">
       <r>  -32.1148    1.0000 </r>
       <r>  -32.0891    1.0000 </r>
       <r>  -32.0879    1.0000 </r>
       <r>  -32.0680    1.0000 </r>
       <r>  -32.0610    1.0000 </r>
       <r>  -32.0551    1.0000 </r>
       <r>  -32.0526    1.0000 </r>
       <r>  -32.0386    1.0000 </r>
       <r>  -32.0235    1.0000 </r>
       <r>  -32.0114    1.0000 </r>
       <r>  -31.9972    1.0000 </r>
       <r>  -31.9787    1.0000 </r>
       <r>  -31.9462    1.0000 </r>
       <r>  -31.8714    1.0000 </r>
       <r>  -31.8205    1.0000 </r>
       <r>  -31.8125    1.0000 </r>
       <r>  -31.7933    1.0000 </r>
       <r>  -31.7776    1.0000 </r>
       <r>  -31.7750    1.0000 </r>
       <r>  -31.7716    1.0000 </r>
       <r>  -31.7478    1.0000 </r>
[...]
       <r>     3.5793     0.0215    48.0192 </r>
       <r>     3.7447     0.0015    48.0627 </r>
       <r>     3.9101     0.0001    48.1094 </r>
       <r>     4.0756     0.0001    48.1719 </r>
       <r>     4.2410     0.0002    48.2657 </r>
       <r>     4.4064     0.0063    48.3135 </r>
       <r>     4.5719     0.0727    48.4183 </r>
       <r>     4.7373     0.1749    48.5758 </r>
       <r>     4.9027     0.6579    48.7026 </r>
       <r>     5.0682     0.8500    48.8437 </r>
       <r>     5.2336     0.5667    48.9375 </r>
       <r>     5.3990     0.2834    49.0781 </r>
       <r>     5.5645     0.0778    49.2316 </r>
       <r>     5.7299     0.2565    49.3549 </r>
       <r>     5.8953     0.8531    49.6411 </r>
       <r>     6.0608     0.5667    49.8750 </r>
       <r>     6.2262     1.1333    50.1250 </r>
       <r>     6.3917     0.0865    50.2799 </r>
       <r>     6.5571     0.5667    50.6406 </r>
       <r>     6.7225     0.6541    51.1238 </r>
       <r>     6.8880     1.6550    52.0394 </r>
       <r>     7.0534     3.6903    53.3449 </r>
       <r>     7.2188     5.3846    54.7345 </r>
       <r>     7.3843     3.7990    55.9722 </r>
       <r>     7.5497     3.2781    57.3079 </r>
       <r>     7.7151     5.2982    59.5171 </r>
       <r>     7.8806     5.1341    61.4900 </r>
       <r>     8.0460     2.4486    62.7801 </r>
       <r>     8.2114     3.3826    64.3877 </r>
       <r>     8.3769     1.9697    65.0446 </r>
       <r>     8.5423     1.8063    65.9707 </r>
       <r>     8.7077     4.0300    67.0104 </r>
       <r>     8.8732     9.4233    70.1527 </r>
       <r>     9.0386     7.1139    72.7863 </r>
       <r>     9.2040     5.8231    75.0883 </r>
       <r>     9.3695     5.5208    77.2258 </r>
       <r>     9.5349     6.7140    79.1888 </r>
       <r>     9.7003     6.9750    81.3414 </r>
       <r>     9.8658     8.6404    83.9294 </r>
       <r>    10.0312     8.5186    86.7061 </r>
       <r>    10.1966     6.3535    89.0823 </r>
       <r>    10.3621     5.6296    90.9938 </r>
       <r>    10.5275     2.0551    92.1681 </r>
       <r>    10.6930     2.8773    92.8354 </r>
       <r>    10.8584     2.3959    93.7089 </r>
       <r>    11.0238     1.4167    94.3438 </r>
       <r>    11.1893     2.6790    95.0213 </r>
       <r>    11.3547     2.0096    95.9106 </r>
       <r>    11.5201     2.0017    96.7999 </r>
       <r>    11.6856     2.1298    97.4773 </r>
       <r>    11.8510     5.5920    99.1751 </r>
       <r>    12.0164     5.2994   101.2048 </r>
       <r>    12.1819     6.3272   103.4374 </r>
       <r>    12.3473     9.2966   106.4755 </r>
       <r>    12.5127     9.7831   109.3841 </r>
       <r>    12.6782     9.0270   112.5871 </r>
       <r>    12.8436    10.3744   115.7475 </r>
       <r>    13.0090     0.0000   116.0000 </r>
       <r>    13.1745     0.0000   116.0000 </r>
       <r>    13.3399     0.0000   116.0000 </r>
       <r>    13.5053     0.0000   116.0000 </r>
       <r>    13.6708     0.0000   116.0000 </r>
       <r>    13.8362     0.0000   116.0000 </r>
       <r>    14.0016     0.0000   116.0000 </r>
       <r>    14.1671     0.0000   116.0000 </r>
       <r>    14.3325     0.0000   116.0000 </r>
       <r>    14.4980     0.0000   116.0000 </r>
       <r>    14.6634     0.0000   116.0000 </r>
       <r>    14.8288     0.0000   116.0000 </r>
       <r>    14.9943     0.0000   116.0000 </r>
       <r>    15.1597     0.0000   116.0000 </r>
      </set>
      <set comment="spin 2">
       <r>   -34.4707     0.0000     0.0000 </r>
       <r>   -34.3053     0.0000     0.0000 </r>
       <r>   -34.1399     0.0000     0.0000 </r>
       <r>   -33.9744     0.0000     0.0000 </r>
       <r>   -33.8090     0.0000     0.0000 </r>
       <r>   -33.6435     0.0000     0.0000 </r>
       <r>   -33.4781     0.0000     0.0000 </r>
       <r>   -33.3127     0.0000     0.0000 </r>
       <r>   -33.1472     0.0000     0.0000 </r>
       <r>   -32.9818     0.0000     0.0000 </r>
       <r>   -32.8164     0.0000     0.0000 </r>
       <r>   -32.6509     0.0000     0.0000 </r>
       <r>   -32.4855     0.0000     0.0000 </r>
       <r>   -32.3201     0.0000     0.0000 </r>
       <r>   -32.1546     5.6237     0.9303 </r>
       <r>   -31.9892    32.6438     9.2910 </r>
       <r>   -31.8238    20.6637    16.1216 </r>
       <r>   -31.6583    16.7172    24.0000 </r>
       <r>   -31.4929     0.0000    24.0000 </r>
       <r>   -31.3275    13.1391    26.3455 </r>
       <r>   -31.1620    47.3820    40.4324 </r>
       <r>   -30.9966     1.0389    48.0000 </r>
       <r>   -30.8312     0.0000    48.0000 </r>
       <r>   -30.6657     0.0000    48.0000 </r>
       <r>   -30.5003     0.0000    48.0000 </r>
       <r>   -30.3349     0.0000    48.0000 </r>
       <r>   -30.1694     0.0000    48.0000 </r>
       <r>   -30.0040     0.0000    48.0000 </r>
       <r>   -29.8385     0.0000    48.0000 </r>
       <r>   -29.6731     0.0000    48.0000 </r>
       <r>   -29.5077     0.0000    48.0000 </r>
       <r>   -29.3422     0.0000    48.0000 </r>
       <r>   -29.1768     0.0000    48.0000 </r>
       <r>   -29.0114     0.0000    48.0000 </r>
       <r>   -28.8459     0.0000    48.0000 </r>
       <r>   -28.6805     0.0000    48.0000 </r>
       <r>   -28.5151     0.0000    48.0000 </r>
       <r>   -28.3496     0.0000    48.0000 </r>
       <r>   -28.1842     0.0000    48.0000 </r>
       <r>   -28.0188     0.0000    48.0000 </r>
       <r>   -27.8533     0.0000    48.0000 </r>
       <r>   -27.6879     0.0000    48.0000 </r>
       <r>   -27.5225     0.0000    48.0000 </r>
       <r>   -27.3570     0.0000    48.0000 </r>
       <r>   -27.1916     0.0000    48.0000 </r>
       <r>   -27.0262     0.0000    48.0000 </r>
       <r>   -26.8607     0.0000    48.0000 </r>
       <r>   -26.6953     0.0000    48.0000 </r>
       <r>   -26.5299     0.0000    48.0000 </r>
       <r>   -26.3644     0.0000    48.0000 </r>
       <r>   -26.1990     0.0000    48.0000 </r>
       <r>   -26.0336     0.0000    48.0000 </r>
       <r>   -25.8681     0.0000    48.0000 </r>
       <r>   -25.7027     0.0000    48.0000 </r>
       <r>   -25.5372     0.0000    48.0000 </r>
       <r>   -25.3718     0.0000    48.0000 </r>
       <r>   -25.2064     0.0000    48.0000 </r>
       <r>   -25.0409     0.0000    48.0000 </r>
       <r>   -24.8755     0.0000    48.0000 </r>
       <r>   -24.7101     0.0000    48.0000 </r>
       <r>   -24.5446     0.0000    48.0000 </r>
       <r>   -24.3792     0.0000    48.0000 </r>
       <r>   -24.2138     0.0000    48.0000 </r>
       <r>   -24.0483     0.0000    48.0000 </r>
       <r>   -23.8829     0.0000    48.0000 </r>
       <r>   -23.7175     0.0000    48.0000 </r>
       <r>   -23.5520     0.0000    48.0000 </r>
       <r>   -23.3866     0.0000    48.0000 </r>
       <r>   -23.2212     0.0000    48.0000 </r>
       <r>   -23.0557     0.0000    48.0000 </r>
       <r>   -22.8903     0.0000    48.0000 </r>
       <r>   -22.7249     0.0000    48.0000 </r>
       <r>   -22.5594     0.0000    48.0000 </r>
       <r>   -22.3940     0.0000    48.0000 </r>
       <r>   -22.2286     0.0000    48.0000 </r>
       <r>   -22.0631     0.0000    48.0000 </r>
       <r>   -21.8977     0.0000    48.0000 </r>
       <r>   -21.7322     0.0000    48.0000 </r>
       <r>   -21.5668     0.0000    48.0000 </r>
       <r>   -21.4014     0.0000    48.0000 </r>
       <r>   -21.2359     0.0000    48.0000 </r>
       <r>   -21.0705     0.0000    48.0000 </r>
       <r>   -20.9051     0.0000    48.0000 </r>
       <r>   -20.7396     0.0000    48.0000 </r>
       <r>   -20.5742     0.0000    48.0000 </r>
       <r>   -20.4088     0.0000    48.0000 </r>
       <r>   -20.2433     0.0000    48.0000 </r>
       <r>   -20.0779     0.0000    48.0000 </r>
       <r>   -19.9125     0.0000    48.0000 </r>
       <r>   -19.7470     0.0000    48.0000 </r>
       <r>   -19.5816     0.0000    48.0000 </r>
       <r>   -19.4162     0.0000    48.0000 </r>
       <r>   -19.2507     0.0000    48.0000 </r>
       <r>   -19.0853     0.0000    48.0000 </r>
       <r>   -18.9199     0.0000    48.0000 </r>
       <r>   -18.7544     0.0000    48.0000 </r>
       <r>   -18.5890     0.0000    48.0000 </r>
       <r>   -18.4236     0.0000    48.0000 </r>
       <r>   -18.2581     0.0000    48.0000 </r>
       <r>   -18.0927     0.0000    48.0000 </r>
       <r>   -17.9273     0.0000    48.0000 </r>
       <r>   -17.7618     0.0000    48.0000 </r>
       <r>   -17.5964     0.0000    48.0000 </r>
       <r>   -17.4309     0.0000    48.0000 </r>
       <r>   -17.2655     0.0000    48.0000 </r>
       <r>   -17.1001     0.0000    48.0000 </r>
       <r>   -16.9346     0.0000    48.0000 </r>
       <r>   -16.7692     0.0000    48.0000 </r>
       <r>   -16.6038     0.0000    48.0000 </r>
       <r>   -16.4383     0.0000    48.0000 </r>
       <r>   -16.2729     0.0000    48.0000 </r>
       <r>   -16.1075     0.0000    48.0000 </r>
       <r>   -15.9420     0.0000    48.0000 </r>
       <r>   -15.7766     0.0000    48.0000 </r>
       <r>   -15.6112     0.0000    48.0000 </r>
       <r>   -15.4457     0.0000    48.0000 </r>
       <r>   -15.2803     0.0000    48.0000 </r>
       <r>   -15.1149     0.0000    48.0000 </r>
       <r>   -14.9494     0.0000    48.0000 </r>
       <r>   -14.7840     0.0000    48.0000 </r>
       <r>   -14.6186     0.0000    48.0000 </r>
       <r>   -14.4531     0.0000    48.0000 </r>
       <r>   -14.2877     0.0000    48.0000 </r>
       <r>   -14.1223     0.0000    48.0000 </r>
       <r>   -13.9568     0.0000    48.0000 </r>
       <r>   -13.7914     0.0000    48.0000 </r>
       <r>   -13.6259     0.0000    48.0000 </r>
       <r>   -13.4605     0.0000    48.0000 </r>
       <r>   -13.2951     0.0000    48.0000 </r>
       <r>   -13.1296     0.0000    48.0000 </r>
       <r>   -12.9642     0.0000    48.0000 </r>
       <r>   -12.7988     0.0000    48.0000 </r>
       <r>   -12.6333     0.0000    48.0000 </r>
       <r>   -12.4679     0.0000    48.0000 </r>
       <r>   -12.3025     0.0000    48.0000 </r>
       <r>   -12.1370     0.0000    48.0000 </r>
       <r>   -11.9716     0.0000    48.0000 </r>
       <r>   -11.8062     0.0000    48.0000 </r>
       <r>   -11.6407     0.0000    48.0000 </r>
       <r>   -11.4753     0.0000    48.0000 </r>
       <r>   -11.3099     0.0000    48.0000 </r>
       <r>   -11.1444     0.0000    48.0000 </r>
       <r>   -10.9790     0.0000    48.0000 </r>
       <r>   -10.8136     0.0000    48.0000 </r>
       <r>   -10.6481     0.0000    48.0000 </r>
       <r>   -10.4827     0.0000    48.0000 </r>
       <r>   -10.3173     0.0000    48.0000 </r>
       <r>   -10.1518     0.0000    48.0000 </r>
       <r>    -9.9864     0.0000    48.0000 </r>
       <r>    -9.8209     0.0000    48.0000 </r>
       <r>    -9.6555     0.0000    48.0000 </r>
       <r>    -9.4901     0.0000    48.0000 </r>
       <r>    -9.3246     0.0000    48.0000 </r>
       <r>    -9.1592     0.0000    48.0000 </r>
       <r>    -8.9938     0.0000    48.0000 </r>
       <r>    -8.8283     0.0000    48.0000 </r>
       <r>    -8.6629     0.0000    48.0000 </r>
       <r>    -8.4975     0.0000    48.0000 </r>
       <r>    -8.3320     0.0000    48.0000 </r>
       <r>    -8.1666     0.0000    48.0000 </r>
       <r>    -8.0012     0.0000    48.0000 </r>
       <r>    -7.8357     0.0000    48.0000 </r>
       <r>    -7.6703     0.0000    48.0000 </r>
       <r>    -7.5049     0.0000    48.0000 </r>
       <r>    -7.3394     0.0000    48.0000 </r>
       <r>    -7.1740     0.0000    48.0000 </r>
       <r>    -7.0086     0.0000    48.0000 </r>
       <r>    -6.8431     0.0000    48.0000 </r>
       <r>    -6.6777     0.0000    48.0000 </r>
       <r>    -6.5123     0.0000    48.0000 </r>
       <r>    -6.3468     0.0000    48.0000 </r>
       <r>    -6.1814     0.0000    48.0000 </r>
       <r>    -6.0160     0.0000    48.0000 </r>
       <r>    -5.8505     0.0000    48.0000 </r>
       <r>    -5.6851     0.0000    48.0000 </r>
       <r>    -5.5196     0.0000    48.0000 </r>
       <r>    -5.3542     0.0000    48.0000 </r>
       <r>    -5.1888     0.0000    48.0000 </r>
       <r>    -5.0233     0.0000    48.0000 </r>
       <r>    -4.8579     0.0000    48.0000 </r>
       <r>    -4.6925     0.0000    48.0000 </r>
       <r>    -4.5270     0.0000    48.0000 </r>
       <r>    -4.3616     0.0000    48.0000 </r>
       <r>    -4.1962     0.0000    48.0000 </r>
       <r>    -4.0307     0.0000    48.0000 </r>
       <r>    -3.8653     0.0000    48.0000 </r>
       <r>    -3.6999     0.0000    48.0000 </r>
       <r>    -3.5344     0.0000    48.0000 </r>
       <r>    -3.3690     0.0000    48.0000 </r>
       <r>    -3.2036     0.0000    48.0000 </r>
       <r>    -3.0381     0.0000    48.0000 </r>
       <r>    -2.8727     0.0000    48.0000 </r>
       <r>    -2.7073     0.0000    48.0000 </r>
       <r>    -2.5418     0.0000    48.0000 </r>
       <r>    -2.3764     0.0000    48.0000 </r>
       <r>    -2.2110     0.0000    48.0000 </r>
       <r>    -2.0455     0.0000    48.0000 </r>
       <r>    -1.8801     0.0000    48.0000 </r>
       <r>    -1.7146     0.0000    48.0000 </r>
       <r>    -1.5492     0.0000    48.0000 </r>
       <r>    -1.3838     0.0000    48.0000 </r>
       <r>    -1.2183     0.0000    48.0000 </r>
       <r>    -1.0529     0.0000    48.0000 </r>
       <r>    -0.8875     0.0000    48.0000 </r>
       <r>    -0.7220     0.0000    48.0000 </r>
       <r>    -0.5566     0.0000    48.0000 </r>
       <r>    -0.3912     0.0000    48.0000 </r>
       <r>    -0.2257     0.0000    48.0000 </r>
       <r>    -0.0603     0.0000    48.0000 </r>
       <r>     0.1051     0.0000    48.0000 </r>
       <r>     0.2706     0.0000    48.0000 </r>
       <r>     0.4360     0.0000    48.0000 </r>
       <r>     0.6014     0.0000    48.0000 </r>
       <r>     0.7669     0.0000    48.0000 </r>
       <r>     0.9323     0.0000    48.0000 </r>
       <r>     1.0977     0.0000    48.0000 </r>
       <r>     1.2632     0.0000    48.0000 </r>
       <r>     1.4286     0.0000    48.0000 </r>
       <r>     1.5940     0.0000    48.0000 </r>
       <r>     1.7595     0.0000    48.0000 </r>
       <r>     1.9249     0.0000    48.0000 </r>
       <r>     2.0903     0.0000    48.0000 </r>
       <r>     2.2558     0.0000    48.0000 </r>
       <r>     2.4212     0.0000    48.0000 </r>
       <r>     2.5867     0.0000    48.0000 </r>
       <r>     2.7521     0.0000    48.0000 </r>
       <r>     2.9175     0.0000    48.0000 </r>
       <r>     3.0830     0.0000    48.0000 </r>
       <r>     3.2484     0.0000    48.0000 </r>
       <r>     3.4138     0.0550    48.0091 </r>
       <r>     3.5793     0.0215    48.0192 </r>
       <r>     3.7447     0.0015    48.0627 </r>
       <r>     3.9101     0.0001    48.1094 </r>
       <r>     4.0756     0.0001    48.1719 </r>
       <r>     4.2410     0.0002    48.2657 </r>
       <r>     4.4064     0.0063    48.3135 </r>
       <r>     4.5719     0.0725    48.4182 </r>
       <r>     4.7373     0.1748    48.5758 </r>
       <r>     4.9027     0.6579    48.7026 </r>
       <r>     5.0682     0.8500    48.8437 </r>
       <r>     5.2336     0.5667    48.9375 </r>
       <r>     5.3990     0.2834    49.0781 </r>
       <r>     5.5645     0.0776    49.2316 </r>
       <r>     5.7299     0.2562    49.3549 </r>
       <r>     5.8953     0.8531    49.6411 </r>
       <r>     6.0608     0.5667    49.8750 </r>
       <r>     6.2262     1.1333    50.1250 </r>
       <r>     6.3917     0.0864    50.2799 </r>
       <r>     6.5571     0.5667    50.6406 </r>
       <r>     6.7225     0.6538    51.1238 </r>
       <r>     6.8880     1.6542    52.0393 </r>
       <r>     7.0534     3.6901    53.3449 </r>
       <r>     7.2188     5.3840    54.7344 </r>
       <r>     7.3843     3.7986    55.9722 </r>
       <r>     7.5497     3.2772    57.3078 </r>
       <r>     7.7151     5.2979    59.5171 </r>
       <r>     7.8806     5.1340    61.4900 </r>
       <r>     8.0460     2.4476    62.7799 </r>
       <r>     8.2114     3.3824    64.3877 </r>
       <r>     8.3769     1.9694    65.0446 </r>
       <r>     8.5423     1.8059    65.9706 </r>
       <r>     8.7077     4.0286    67.0102 </r>
       <r>     8.8732     9.4262    70.1532 </r>
       <r>     9.0386     7.1120    72.7860 </r>
       <r>     9.2040     5.8229    75.0883 </r>
       <r>     9.3695     5.5201    77.2257 </r>
       <r>     9.5349     6.7136    79.1888 </r>
       <r>     9.7003     6.9740    81.3412 </r>
       <r>     9.8658     8.6333    83.9283 </r>
       <r>    10.0312     8.5162    86.7058 </r>
       <r>    10.1966     6.5438    89.0826 </r>
       <r>    10.3621     5.6311    90.9941 </r>
       <r>    10.5275     2.0574    92.1685 </r>
       <r>    10.6930     2.8752    92.8350 </r>
       <r>    10.8584     2.3960    93.7089 </r>
       <r>    11.0238     1.4167    94.3438 </r>
       <r>    11.1893     2.6796    95.0214 </r>
       <r>    11.3547     2.0091    95.9105 </r>
       <r>    11.5201     2.0018    96.7999 </r>
       <r>    11.6856     2.1257    97.4767 </r>
       <r>    11.8510     5.7752    99.1742 </r>
       <r>    12.0164     5.2955   101.2042 </r>
       <r>    12.1819     6.3243   103.4369 </r>
       <r>    12.3473     9.2979   106.4757 </r>
       <r>    12.5127     9.7791   109.3834 </r>
       <r>    12.6782     9.0244   112.5867 </r>
       <r>    12.8436    10.2475   115.7578 </r>
       <r>    13.0090     0.0000   116.0000 </r>
       <r>    13.1745     0.0000   116.0000 </r>
       <r>    13.3399     0.0000   116.0000 </r>
       <r>    13.5053     0.0000   116.0000 </r>
       <r>    13.6708     0.0000   116.0000 </r>
       <r>    13.8362     0.0000   116.0000 </r>
       <r>    14.0016     0.0000   116.0000 </r>
       <r>    14.1671     0.0000   116.0000 </r>
       <r>    14.3325     0.0000   116.0000 </r>
       <r>    14.4980     0.0000   116.0000 </r>
       <r>    14.6634     0.0000   116.0000 </r>
       <r>    14.8288     0.0000   116.0000 </r>
       <r>    14.9943     0.0000   116.0000 </r>
       <r>    15.1597     0.0000   116.0000 </r>
      </set>
     </set>
    </array>
   </total>
  </dos>
 </calculation>
 <structure name="finalpos" >
  <crystal>
   <varray name="basis" >
    <v>       5.62539389       0.00000000       0.00000000 </v>
    <v>       0.00000000       5.62539389       0.00000000 </v>
    <v>       0.00000000       0.00000000       5.62539389 </v>
   </varray>
   <i name="volume">    178.01590677 </i>
   <varray name="rec_basis" >
    <v>       0.17776533       0.00000000       0.00000000 </v>
    <v>       0.00000000       0.17776533       0.00000000 </v>
    <v>       0.00000000       0.00000000       0.17776533 </v>
   </varray>
  </crystal>
  <varray name="positions" >
   <v>       0.00177765       0.00000000       0.00000000 </v>
   <v>       0.50000000       0.00000000       0.00000000 </v>
   <v>       0.00000000       0.50000000       0.00000000 </v>
   <v>       0.50000000       0.50000000       0.00000000 </v>
   <v>       0.00000000       0.00000000       0.50000000 </v>
   <v>       0.50000000       0.00000000       0.50000000 </v>
   <v>       0.00000000       0.50000000       0.50000000 </v>
   <v>       0.50000000       0.50000000       0.50000000 </v>
   <v>       0.25000000       0.25000000       0.25000000 </v>
   <v>       0.75000000       0.25000000       0.25000000 </v>
   <v>       0.25000000       0.75000000       0.25000000 </v>
   <v>       0.75000000       0.75000000       0.25000000 </v>
   <v>       0.25000000       0.25000000       0.75000000 </v>
   <v>       0.75000000       0.25000000       0.75000000 </v>
   <v>       0.25000000       0.75000000       0.75000000 </v>
   <v>       0.75000000       0.75000000       0.75000000 </v>
  </varray>
 </structure>
</modeling>
