#

2 atoms
1 atom types

0.0 2.923479689273095 xlo xhi   # xx
0.0 2.531807678358337 ylo yhi   # yy
0.0 4.624022835916574 zlo zhi   # zz

-1.461739844636547 0.000000000000000 0.000000000000000 xy xz yz

Atom Type Labels

1 Ti

Atoms

1 Ti 0.000000000000001 1.687871785572226 3.468017126937431
2 Ti 1.461739844636549 0.843935892786111 1.156005708979144
