unknown system
           1
    22.562240    0.000000    0.000000
     0.000000   22.562240    0.000000
     0.000000    0.000000   22.562240
   Na   Cl
   256   256
Direct configuration=    50
   0.99854664  0.00265936  0.00701660
   0.24380164  0.99562657  0.01445232
   0.49862385  0.99859806  0.01433961
   0.74489594  0.99492493  0.99891716
   0.99942747  0.25550917  0.00883594
   0.26238584  0.25871485  0.00644861
   0.49780885  0.25105831  0.00975920
   0.75548599  0.25103905  0.99772410
   0.00258216  0.50309865  0.99576637
   0.25190115  0.48288966  0.97406469
   0.50141983  0.49213049  0.99240802
   0.75814599  0.50523595  0.00469698
   0.00558747  0.75022544  0.99835099
   0.25042486  0.75400799  0.00221049
   0.49818484  0.75367385  0.98839988
   0.74407119  0.75177738  0.00056105
   0.99915202  0.99726479  0.25287301
   0.25309340  0.00101507  0.25249247
   0.49992981  0.00795348  0.25072630
   0.74639746  0.00046027  0.25007766
   0.01308152  0.25029508  0.24480069
   0.24726534  0.25629600  0.24950454
   0.51080215  0.25021347  0.25557695
   0.74534698  0.25827836  0.25123363
   0.99946497  0.49714825  0.25353211
   0.24104812  0.50857504  0.24490249
   0.49257883  0.49358782  0.24760493
   0.75374007  0.50825037  0.24730799
   0.00067787  0.75670104  0.25272521
   0.25565444  0.76638783  0.25238790
   0.49396382  0.75625583  0.25398627
   0.76029027  0.74991791  0.25608814
   0.99858898  0.00169213  0.49721771
   0.25390606  0.99529855  0.50913458
   0.48123552  0.98760521  0.50255062
   0.75444716  0.99472102  0.50846557
   0.00700141  0.24445512  0.49691286
   0.26103146  0.25297703  0.49943335
   0.50929268  0.24271087  0.50437853
   0.75179002  0.24760442  0.49177071
   0.00042208  0.49533618  0.50282349
   0.25812372  0.50515326  0.49834757
   0.50493917  0.48564159  0.48591758
   0.75416735  0.50806913  0.50596334
   0.00855901  0.74508487  0.50513679
   0.25171476  0.74430607  0.49995443
   0.50396172  0.73985947  0.50218665
   0.75930624  0.74829485  0.50176548
   0.99924735  0.00892679  0.74304484
   0.24426923  0.00071481  0.75867432
   0.49729830  0.99551228  0.74850163
   0.74550045  0.99328027  0.74987223
   0.99285678  0.25434048  0.74814252
   0.25260899  0.24718563  0.75766883
   0.50570403  0.24423193  0.75095791
   0.74330527  0.22863667  0.74551236
   0.00239611  0.49855058  0.75031797
   0.25939519  0.50823961  0.74165874
   0.49685463  0.50152595  0.73686942
   0.75015562  0.49600831  0.75022044
   0.00677656  0.74378471  0.75138565
   0.24644842  0.75444020  0.75879864
   0.50792548  0.75098884  0.74445774
   0.75332695  0.74964621  0.75717229
   0.99719660  0.12147838  0.13920285
   0.25001809  0.13448990  0.12694096
   0.50159591  0.12348458  0.13287709
   0.75288318  0.12396988  0.12763279
   0.00574702  0.39051005  0.11549558
   0.23714774  0.38748914  0.12753206
   0.50353365  0.37344424  0.12095467
   0.75379672  0.37413339  0.11844082
   0.99469984  0.63068052  0.13008158
   0.24116440  0.62340867  0.12057566
   0.49834439  0.62684210  0.10081269
   0.74598693  0.63076834  0.11991023
   0.99456920  0.87611991  0.12543534
   0.25291380  0.87719428  0.12130117
   0.49228851  0.87780585  0.12483414
   0.73448184  0.88234636  0.13057972
   0.00038669  0.12156070  0.37845818
   0.25211456  0.12965562  0.37712573
   0.50028080  0.12436615  0.36978463
   0.74814590  0.12669604  0.37721124
   0.99830096  0.36977794  0.37106926
   0.25191642  0.38304479  0.36603452
   0.50254253  0.37377891  0.36408104
   0.75601935  0.37921950  0.36733046
   0.00720603  0.63005864  0.38726302
   0.25498249  0.61785041  0.36351557
   0.50518805  0.62254742  0.36619596
   0.76005942  0.61961697  0.37821202
   0.00118208  0.88145893  0.37540109
   0.25868717  0.87447904  0.37488464
   0.49876819  0.87474357  0.37261487
   0.74975297  0.86849745  0.37471404
   0.99182811  0.12256354  0.62384730
   0.24719242  0.13212463  0.63242327
   0.49298115  0.12077800  0.61846472
   0.74843615  0.11931153  0.61943218
   0.98316643  0.38059402  0.61246930
   0.24900359  0.37095859  0.63516626
   0.50544707  0.36767606  0.61576265
   0.74451880  0.36851117  0.62229116
   0.00199057  0.62806825  0.62759118
   0.25067694  0.63177853  0.62700184
   0.49788508  0.61685199  0.60465263
   0.76362086  0.62155071  0.63397417
   0.99593494  0.88638326  0.63171535
   0.26275729  0.86620147  0.62611005
   0.49180927  0.88330652  0.62309476
   0.74921149  0.87592246  0.61986251
   0.00417688  0.13014647  0.87192168
   0.24037845  0.12446495  0.87871099
   0.48664606  0.12110910  0.87382917
   0.73554624  0.12555342  0.87338551
   0.98855489  0.37142780  0.87496926
   0.25908578  0.36427799  0.86575280
   0.51355697  0.37217803  0.86555073
   0.74888849  0.37878061  0.87496091
   0.01066273  0.63518270  0.87126978
   0.25480728  0.62552486  0.87078745
   0.48503782  0.61157065  0.86585234
   0.74858496  0.63254274  0.87746844
   0.99589725  0.87520346  0.88444816
   0.24145325  0.88806847  0.88235158
   0.49525419  0.86343682  0.87925480
   0.75379748  0.87498550  0.86204511
   0.11724257  0.99090431  0.13385016
   0.38445876  0.00184426  0.12523899
   0.62923762  0.00768768  0.11840496
   0.87254437  0.99886309  0.11214141
   0.12442433  0.25496917  0.12530271
   0.37469156  0.25952960  0.13455300
   0.62452622  0.25251552  0.11613869
   0.86811820  0.24399524  0.12332842
   0.11816382  0.50842816  0.12678565
   0.36099974  0.49678648  0.11707330
   0.62387373  0.50057358  0.12683472
   0.87088111  0.49629728  0.12351157
   0.12456230  0.75682052  0.13110956
   0.37947074  0.74796680  0.12781967
   0.62533125  0.75009694  0.13480524
   0.87103872  0.74794728  0.11570153
   0.12726144  0.00610308  0.37296577
   0.37385043  0.00561334  0.38527225
   0.62480460  0.99529814  0.37924427
   0.86541634  0.99405131  0.37342936
   0.12535258  0.25194147  0.37830916
   0.37810246  0.24223928  0.37355189
   0.61665052  0.25643152  0.37088920
   0.86586766  0.24278040  0.37200057
   0.12664535  0.50261930  0.36930298
   0.37571422  0.49482010  0.37522235
   0.62218682  0.49133671  0.37476930
   0.87579517  0.49335616  0.37699380
   0.12992414  0.76592411  0.37735230
   0.37438793  0.75064047  0.36776395
   0.62705275  0.73801690  0.37803200
   0.88457996  0.73931357  0.37650881
   0.12173773  0.99951442  0.61744525
   0.36150831  0.00488788  0.63534971
   0.60995159  0.00096192  0.62698273
   0.87230646  0.99671556  0.61391676
   0.10970937  0.25224561  0.63134483
   0.37836226  0.24430840  0.63941713
   0.62608655  0.25915964  0.62430388
   0.87206740  0.25071017  0.61874844
   0.13383109  0.50082685  0.61770311
   0.38682080  0.47928075  0.63348922
   0.63213022  0.49698222  0.62815030
   0.88324005  0.50087229  0.63040105
   0.12093026  0.74782990  0.62566576
   0.37818927  0.74311623  0.62211552
   0.63077235  0.74567898  0.62969086
   0.87915656  0.74623027  0.63515740
   0.11928638  0.00838876  0.88574036
   0.37003489  0.99540851  0.87887630
   0.62488397  0.99926024  0.87864844
   0.87865711  0.00466968  0.85665381
   0.12713560  0.24667830  0.86837544
   0.38393097  0.23393187  0.87581255
   0.62531176  0.24643064  0.86585455
   0.87580381  0.24697448  0.87077683
   0.12332073  0.49030121  0.87493929
   0.37806143  0.49646160  0.87257969
   0.62078934  0.49856504  0.87218109
   0.87031066  0.50056301  0.86874432
   0.11275110  0.75097740  0.87943766
   0.35859847  0.74751275  0.87497158
   0.62046965  0.75094422  0.88391935
   0.86464722  0.75226632  0.87294534
   0.12472546  0.13582697  0.00597836
   0.36499306  0.12275674  0.01745460
   0.62263375  0.12417712  0.98763772
   0.87041627  0.12014381  0.99396979
   0.11782601  0.37522334  0.99565976
   0.37663056  0.36884733  0.99564831
   0.62840139  0.37906161  0.00300683
   0.87257255  0.36745390  0.99993219
   0.13032468  0.62381797  0.00620764
   0.37120237  0.62672766  0.00224491
   0.61506554  0.62036860  0.99499500
   0.86974396  0.63810754  0.00175079
   0.12564959  0.87795520  0.00110012
   0.37579231  0.86443168  0.00731475
   0.61867650  0.88019982  0.00834128
   0.87731829  0.87263837  0.99378181
   0.12735861  0.12270505  0.25970290
   0.38527144  0.13469491  0.26376608
   0.62219186  0.12652444  0.25542211
   0.87554926  0.12963327  0.25346152
   0.12371628  0.38213971  0.25091670
   0.37428507  0.38232577  0.25123920
   0.62620046  0.37105310  0.25049665
   0.87123871  0.36904801  0.24607848
   0.12815195  0.64691314  0.25291843
   0.37976809  0.61629852  0.24494607
   0.62649737  0.62202756  0.25430446
   0.87434810  0.61625399  0.26007940
   0.12014318  0.88034289  0.25556883
   0.38071301  0.88003507  0.25905334
   0.62690589  0.87195760  0.25637990
   0.86845180  0.88015381  0.24334279
   0.13273238  0.13472993  0.50769754
   0.38643830  0.12557578  0.50930571
   0.62334644  0.12230741  0.50484463
   0.87245610  0.12620217  0.49705041
   0.12230525  0.36944019  0.50816045
   0.37255776  0.36862652  0.50400546
   0.62530057  0.37741053  0.49450489
   0.86843211  0.37795260  0.48896586
   0.12651922  0.62547082  0.49459039
   0.36649644  0.62510378  0.48878729
   0.62684599  0.62113517  0.49263929
   0.86981536  0.62443145  0.50410063
   0.13094859  0.87609659  0.50446000
   0.37852422  0.87168869  0.50673966
   0.61277890  0.88086760  0.50715264
   0.88081476  0.86288876  0.48845376
   0.12247196  0.14099305  0.74851533
   0.36463079  0.12347597  0.75563822
   0.61015808  0.12261605  0.74962247
   0.87238178  0.12042602  0.74744013
   0.12846545  0.37462903  0.74909749
   0.38211761  0.37369489  0.75049337
   0.62640778  0.37493140  0.73767632
   0.87165559  0.37487540  0.75857284
   0.13209856  0.62156180  0.74772678
   0.38771451  0.62492839  0.74365305
   0.62784738  0.62296952  0.75998616
   0.88835666  0.62546083  0.75163021
   0.13617198  0.87649546  0.75292283
   0.37050831  0.87366338  0.75778044
   0.62615899  0.86896959  0.75461571
   0.87940608  0.87427042  0.74596890
   0.11941796  0.13036099  0.14050298
   0.37603349  0.12674855  0.13695336
   0.62543525  0.12909821  0.11535109
   0.87342422  0.12664819  0.12524378
   0.12509477  0.38211083  0.12034860
   0.37205933  0.38117644  0.13605756
   0.61656825  0.38112797  0.12241495
   0.87215985  0.37326524  0.12431389
   0.12197684  0.64022838  0.12527001
   0.38163545  0.61473562  0.12551051
   0.62103357  0.63056844  0.12803519
   0.87078132  0.62345120  0.11489099
   0.12183039  0.87438337  0.12175571
   0.38259466  0.88191379  0.12455260
   0.61785826  0.88109727  0.13797279
   0.87925089  0.87591222  0.11678552
   0.12888037  0.12201845  0.38263233
   0.37817510  0.12386137  0.38076960
   0.62293722  0.12011386  0.37363463
   0.88714008  0.11394215  0.37412801
   0.12357778  0.37922288  0.37356687
   0.37927057  0.37116306  0.37455433
   0.61919677  0.37227160  0.37174102
   0.87373637  0.36886436  0.36066989
   0.12375715  0.64318190  0.37198006
   0.38121803  0.62255982  0.37394981
   0.63469112  0.61284745  0.37645074
   0.87936604  0.62580367  0.37443568
   0.12262912  0.88182539  0.37927559
   0.37717056  0.87825747  0.37512779
   0.62060136  0.86879956  0.37528180
   0.87528903  0.86518068  0.36809685
   0.12261772  0.13321729  0.62424924
   0.37537631  0.12573485  0.63485963
   0.62539824  0.11851839  0.62467892
   0.87666394  0.12021738  0.62882901
   0.12032807  0.37368760  0.62861919
   0.37553608  0.36430918  0.62473109
   0.63116843  0.38508030  0.61837071
   0.86249263  0.37749196  0.62271886
   0.13436768  0.62381003  0.62801920
   0.37049281  0.62115028  0.61667818
   0.63181185  0.62271388  0.63062325
   0.88168557  0.62314109  0.63152211
   0.11178796  0.87998431  0.63139121
   0.37661867  0.88388502  0.63021412
   0.61729687  0.87251221  0.63099002
   0.87405359  0.87463963  0.61631911
   0.12317386  0.12757597  0.87276241
   0.36652995  0.11436585  0.88396357
   0.62574779  0.11700767  0.86810707
   0.88351819  0.12042077  0.87728822
   0.12083135  0.37286763  0.87392598
   0.38151173  0.37225916  0.87442139
   0.62593449  0.36922245  0.87758623
   0.86793989  0.37378353  0.88372134
   0.13190429  0.62743283  0.87823010
   0.37240600  0.63534648  0.87336375
   0.63291517  0.61819875  0.87224848
   0.89219967  0.62116469  0.88355574
   0.11873428  0.87750879  0.87170067
   0.37357957  0.86905934  0.87429950
   0.61903480  0.86949454  0.87906523
   0.87555110  0.86696693  0.87184794
   0.12699327  0.99668110  0.01209980
   0.36661440  0.99532010  0.00762131
   0.62687482  0.00226845  0.99782305
   0.87145284  0.00115093  0.99219761
   0.12732404  0.25340701  0.00089249
   0.38627861  0.24451643  0.01481479
   0.62380455  0.25767007  0.99088574
   0.87770666  0.25054604  0.99783889
   0.12485376  0.50526349  0.99968404
   0.36702624  0.49357387  0.99576368
   0.62624625  0.50566790  0.99811511
   0.88094508  0.50796155  0.99105499
   0.12157994  0.76008970  0.00389816
   0.37236443  0.74282554  0.99050488
   0.62024135  0.73710845  0.01203534
   0.86953195  0.75976784  0.99258337
   0.12567951  0.00363853  0.25324843
   0.37356725  0.99746012  0.24968439
   0.62706988  0.00599891  0.24865449
   0.87917680  0.99678136  0.24513194
   0.12570559  0.24218798  0.25025930
   0.39162091  0.24683349  0.24647235
   0.62590074  0.24862367  0.24794120
   0.86539439  0.25358097  0.25100862
   0.11806940  0.50187063  0.25248919
   0.37617488  0.49557416  0.25806384
   0.62195313  0.50269886  0.25161275
   0.87400571  0.49518670  0.25046601
   0.13857435  0.76007587  0.25271377
   0.37753626  0.75727229  0.25415716
   0.62118598  0.75632489  0.26015856
   0.87483930  0.75027220  0.24621229
   0.12884253  0.99732714  0.50274589
   0.37012564  0.99198370  0.49949176
   0.63331253  0.00303112  0.49564229
   0.87564131  0.00427381  0.49391604
   0.13144074  0.25051601  0.51067763
   0.38272725  0.24987337  0.51014484
   0.62096597  0.24999135  0.49345880
   0.87101648  0.25261854  0.49473554
   0.12471101  0.50403774  0.49842182
   0.37996217  0.50139193  0.49733595
   0.62890530  0.50358251  0.49460707
   0.87752206  0.49255332  0.49881345
   0.12076194  0.75026641  0.50232285
   0.37646209  0.75209272  0.49274558
   0.62673395  0.74507933  0.49451893
   0.88965902  0.74466367  0.49936473
   0.12032973  0.00645363  0.75694600
   0.36726179  0.00707953  0.75201657
   0.62549134  0.00463911  0.76176852
   0.87780807  0.00162439  0.74507640
   0.13147632  0.25984204  0.75258392
   0.37037251  0.24265581  0.76168025
   0.62804987  0.25189330  0.73811064
   0.86556385  0.24531012  0.75653587
   0.13352449  0.49348244  0.75016991
   0.37765859  0.50127762  0.74681648
   0.62900278  0.49445501  0.74643364
   0.87905419  0.49450123  0.74539293
   0.12502617  0.75654982  0.75529722
   0.38017155  0.75224750  0.74941656
   0.63182384  0.74513979  0.75537468
   0.88659652  0.74989361  0.75118316
   0.99679834  0.12212869  0.99628728
   0.24512125  0.12392812  0.00334301
   0.50514645  0.12995606  0.00189844
   0.75312794  0.12230493  0.99671190
   0.98855023  0.38172463  0.00248245
   0.24931329  0.37606244  0.99373984
   0.50179958  0.37271149  0.99952674
   0.75206522  0.38040643  0.00519119
   0.00170222  0.63094723  0.99990829
   0.25201596  0.61062416  0.99922227
   0.49290920  0.61584571  0.98210379
   0.74794333  0.62819482  0.99541572
   0.99635695  0.87053858  0.00712093
   0.25472333  0.87969728  0.99909624
   0.49535369  0.87578742  0.99600791
   0.73876257  0.87458708  0.99866969
   0.00798997  0.12262428  0.25414191
   0.24918689  0.13221237  0.25740973
   0.50197267  0.12627197  0.24928181
   0.75953714  0.12808022  0.25196862
   0.00268051  0.37024414  0.24522204
   0.25091552  0.38477920  0.24798977
   0.50526048  0.37355137  0.24439585
   0.74680524  0.37560950  0.24880855
   0.00483369  0.63447605  0.25536752
   0.24986218  0.62531781  0.24606518
   0.50358660  0.62987992  0.24861759
   0.74512948  0.63186738  0.25456545
   0.00002329  0.87843473  0.24991612
   0.24540206  0.88519398  0.25780285
   0.49291531  0.88019300  0.25399413
   0.75460498  0.87976509  0.25691549
   0.00689797  0.11870047  0.49643118
   0.25538885  0.13294392  0.49864380
   0.50154975  0.12278928  0.49846347
   0.74863523  0.13113617  0.49878891
   0.99454703  0.38153940  0.48845281
   0.25713151  0.37956771  0.50242595
   0.50442021  0.36875001  0.50210152
   0.75292833  0.37866441  0.49476360
   0.00538565  0.61864332  0.50381621
   0.24560593  0.62266193  0.48674960
   0.49801338  0.62396673  0.49147481
   0.75538259  0.62749095  0.50732185
   0.00267400  0.87819563  0.50672191
   0.25723457  0.87401877  0.50328373
   0.49760004  0.86423008  0.50665178
   0.74663993  0.86919156  0.49407484
   0.99466866  0.13631037  0.75209037
   0.24035560  0.12673455  0.76079848
   0.48554889  0.12133054  0.74823420
   0.74550120  0.11404837  0.73816583
   0.00344593  0.36849705  0.73812599
   0.24946837  0.37478744  0.75037635
   0.50414417  0.37340862  0.74783515
   0.74584496  0.36571817  0.75438695
   0.01322459  0.62748562  0.74588360
   0.25349078  0.63015123  0.74633242
   0.50733419  0.61719552  0.73745533
   0.75509937  0.62991353  0.75279758
   0.99145903  0.88392451  0.75010920
   0.25245447  0.87087836  0.75525856
   0.49778590  0.87316697  0.75464725
   0.75463074  0.87296688  0.74528650
   0.99085919  0.00347377  0.12887316
   0.24250986  0.00762862  0.12993590
   0.50202058  0.99885981  0.13338160
   0.75011396  0.99645077  0.12895961
   0.99394481  0.25411633  0.12518221
   0.25494954  0.27112728  0.12961189
   0.50249174  0.25158145  0.12351978
   0.73961998  0.24357674  0.12943310
   0.99514119  0.50565564  0.13316163
   0.23303003  0.50258103  0.12164524
   0.50163224  0.50457863  0.12568442
   0.75832008  0.50512597  0.12007701
   0.00742257  0.75301073  0.13541925
   0.25982678  0.75739286  0.12295455
   0.49678828  0.75129701  0.11926456
   0.74999740  0.75972734  0.12220116
   0.00069994  0.00618727  0.37005954
   0.25040001  0.00185107  0.37960796
   0.49632533  0.00268172  0.38239367
   0.74555372  0.00445500  0.37768756
   0.98704271  0.24489888  0.36580765
   0.24548260  0.25367547  0.38070755
   0.50206297  0.24974086  0.36882115
   0.74469756  0.24424723  0.36932314
   0.99722202  0.50071929  0.37834095
   0.25275553  0.49739354  0.36839629
   0.50547694  0.49901543  0.36203836
   0.75363945  0.50326675  0.37221143
   0.00247809  0.74657819  0.37706285
   0.25796530  0.74582305  0.36848781
   0.50122213  0.75529197  0.37409829
   0.75797700  0.74119268  0.37954656
   0.99510333  0.00954441  0.62188048
   0.24489311  0.99546023  0.63420326
   0.48461465  0.00020091  0.62692115
   0.75810778  0.99291910  0.62929110
   0.98991521  0.25015655  0.61259310
   0.26060754  0.24989344  0.63563819
   0.49808138  0.25422111  0.62589921
   0.74909380  0.24196381  0.62546303
   0.00467928  0.49637634  0.62508516
   0.25287247  0.49458626  0.62308607
   0.49973172  0.48538218  0.61515430
   0.75294611  0.49555555  0.62458460
   0.00520677  0.75064567  0.62699655
   0.25441098  0.75041625  0.62216967
   0.49958719  0.74984779  0.62329949
   0.75825965  0.74807250  0.62720347
   0.99955932  0.99821285  0.88209821
   0.23942317  0.00440733  0.88051480
   0.48898292  0.99838837  0.86956361
   0.75038437  0.00272883  0.87168604
   0.00242065  0.25036385  0.88015094
   0.25130257  0.24714746  0.88689467
   0.50485948  0.24656030  0.86641440
   0.74672018  0.24324752  0.87397023
   0.99603216  0.49176401  0.86105896
   0.25410167  0.48888927  0.86235383
   0.49829869  0.49182946  0.86269863
   0.75518429  0.50309846  0.87717559
   0.99678080  0.74994380  0.86727894
   0.23679233  0.74838856  0.88159661
   0.49468592  0.74322913  0.86921479
   0.74132187  0.75798177  0.87419480
Direct configuration=   100
   0.99387842  0.99950261  0.99477469
   0.25037468  0.00688579  0.99909177
   0.49859848  0.00293665  0.99472285
   0.74895734  0.00840596  0.00599521
   0.99487638  0.25549052  0.99365631
   0.24053926  0.24440183  0.00521029
   0.51119009  0.24414441  0.99122922
   0.74860771  0.24806586  0.99838925
   0.00146609  0.51661011  0.99584094
   0.24862374  0.51149230  0.00217174
   0.49328991  0.48949004  0.00547480
   0.74833455  0.49982128  0.99205577
   0.99401466  0.76576057  0.00962008
   0.25028431  0.75762680  0.99771710
   0.49883801  0.74576270  0.00313148
   0.75200698  0.75122212  0.99291217
   0.01205373  0.00097248  0.24149816
   0.25082006  0.02709268  0.26124516
   0.50960569  0.00104967  0.25822916
   0.75686394  0.01087392  0.25902751
   0.98519804  0.24503044  0.25472882
   0.25964347  0.26395732  0.25376521
   0.49891665  0.24962024  0.24505665
   0.75415978  0.24715954  0.24650540
   0.00267526  0.49874143  0.24971736
   0.24577039  0.49941751  0.25198939
   0.50305168  0.50409979  0.25195382
   0.74889756  0.49739085  0.24977395
   0.01355577  0.75389405  0.25851446
   0.25737041  0.74989359  0.24742300
   0.50112248  0.75295258  0.24338334
   0.74374624  0.75378227  0.25420811
   0.00384362  0.00530495  0.50007849
   0.23336666  0.01104626  0.50868123
   0.50279344  0.00369728  0.50856313
   0.75081696  0.99569754  0.49617687
   0.99709002  0.25938617  0.49287783
   0.26580199  0.25189491  0.50771140
   0.50130486  0.25483212  0.49565689
   0.75433910  0.26046659  0.50409272
   0.00535824  0.50370208  0.49900388
   0.24395590  0.48307485  0.49613544
   0.51038836  0.50257557  0.51414324
   0.75516989  0.49098830  0.50062298
   0.00823915  0.76449329  0.50241347
   0.25086370  0.74778022  0.49311956
   0.49100043  0.75868484  0.50245460
   0.74263135  0.75012244  0.49634464
   0.99305287  0.00614280  0.75349463
   0.24782479  0.00796084  0.75699529
   0.48887280  0.00691310  0.75418706
   0.74768236  0.99759207  0.74918787
   0.00747183  0.25790111  0.74659465
   0.24608496  0.24688814  0.75634095
   0.50179954  0.24420412  0.74390376
   0.75361672  0.25931627  0.74098376
   0.01476040  0.49832208  0.74111546
   0.25448542  0.48724638  0.74667521
   0.51287132  0.47944109  0.75409549
   0.76236989  0.49590125  0.74922816
   0.00776673  0.76341884  0.74571121
   0.25880936  0.75408321  0.74343673
   0.49744294  0.73321047  0.74870794
   0.74964077  0.75241156  0.74165496
   0.00228139  0.12784677  0.11793328
   0.24247672  0.12731095  0.13106005
   0.48912414  0.12618776  0.12066960
   0.73933216  0.12973672  0.12825651
   0.98829484  0.37747979  0.12096918
   0.24451869  0.38222000  0.11359229
   0.49937009  0.38692396  0.13192697
   0.74838144  0.38375954  0.13053018
   0.00637738  0.63682237  0.12217384
   0.24655444  0.62889987  0.11664379
   0.50428317  0.62828235  0.11962317
   0.74914235  0.63033113  0.14198646
   0.00371308  0.87490745  0.12314648
   0.24397745  0.87946993  0.14028597
   0.49797593  0.87204332  0.12805759
   0.74759632  0.86909927  0.11401774
   0.00371176  0.12380197  0.37643231
   0.25000509  0.12764000  0.38694229
   0.49475262  0.12703865  0.38223704
   0.74551458  0.13155102  0.37420451
   0.00328728  0.37072402  0.36376821
   0.24610222  0.36870203  0.37136627
   0.49716697  0.36866744  0.37590044
   0.74325477  0.37382208  0.38604704
   0.00258967  0.61808093  0.37281788
   0.25753351  0.62554649  0.36614454
   0.50125794  0.62325245  0.38250036
   0.74765138  0.62684766  0.37991269
   0.00539948  0.86670154  0.37559538
   0.25566326  0.87905152  0.38489154
   0.50808068  0.88232880  0.38635396
   0.74792661  0.87151560  0.37342233
   0.00577629  0.14011044  0.61848537
   0.23912033  0.11945010  0.63060039
   0.50054322  0.12418993  0.62822187
   0.74810649  0.11298695  0.61711939
   0.99951279  0.37008683  0.63187237
   0.24077192  0.36242767  0.62179904
   0.50355518  0.37330371  0.63121694
   0.75334235  0.37303076  0.62199913
   0.00645320  0.61439469  0.62277854
   0.25155025  0.62498049  0.61222383
   0.48808096  0.61234388  0.63350553
   0.74841658  0.62790546  0.62120206
   0.00037800  0.86123358  0.63006987
   0.24530985  0.88457106  0.63354581
   0.50401562  0.85782156  0.63508527
   0.75470671  0.87917501  0.63000059
   0.99461732  0.11353945  0.86949250
   0.25181110  0.12328453  0.88340667
   0.49836586  0.11832675  0.87901306
   0.76217390  0.11999450  0.86508647
   0.99489584  0.37419579  0.86675169
   0.24654523  0.36720339  0.88296942
   0.49325164  0.36223364  0.86914136
   0.74878051  0.37119148  0.87939771
   0.00200493  0.61741148  0.86831486
   0.23995121  0.61206289  0.86496240
   0.50130969  0.61133684  0.86943059
   0.75670076  0.63263563  0.87402063
   0.99010737  0.87204274  0.86279263
   0.23642502  0.87290538  0.86297348
   0.49922680  0.87353375  0.86576670
   0.73542447  0.87716281  0.88394589
   0.13163121  0.00622100  0.12207079
   0.36650237  0.99424153  0.14335551
   0.62495273  0.00044385  0.12860362
   0.87429432  0.00731576  0.13816967
   0.12440578  0.25325592  0.13148422
   0.37602192  0.25814805  0.12904626
   0.62004778  0.25607775  0.11867261
   0.87985045  0.25643277  0.12399479
   0.11575171  0.50861729  0.12830152
   0.36956283  0.50882683  0.13625076
   0.61506596  0.50406780  0.12137681
   0.88574606  0.51305620  0.11328052
   0.13214302  0.75191112  0.12677921
   0.38024367  0.74502452  0.12403953
   0.62278155  0.75101482  0.13207468
   0.87674180  0.75319081  0.13046858
   0.12571785  0.99100606  0.38675526
   0.36784262  0.99648775  0.37831748
   0.62235926  0.00524635  0.37739802
   0.88035594  0.99677680  0.36819985
   0.11872220  0.25126366  0.38127242
   0.37326947  0.24818492  0.38147244
   0.62599200  0.24587866  0.38556682
   0.87354987  0.24997408  0.37344539
   0.11950725  0.49883221  0.38255199
   0.37857734  0.50696961  0.37493367
   0.63283475  0.49733250  0.36525060
   0.87342665  0.49759058  0.36844714
   0.13190858  0.74293113  0.37717492
   0.38654460  0.73824836  0.38253771
   0.61170872  0.74870789  0.37861853
   0.88812391  0.74823247  0.37589403
   0.11668280  0.00955280  0.63837948
   0.36613921  0.99768495  0.62811985
   0.62322373  0.98806814  0.63638274
   0.88815746  0.99080868  0.62202803
   0.13283454  0.25746980  0.62742193
   0.37873324  0.24575887  0.62294702
   0.62454482  0.24023465  0.62237720
   0.87017355  0.23760356  0.61747736
   0.12747386  0.49425039  0.62987980
   0.37205759  0.49913289  0.61108452
   0.63649023  0.51031747  0.61649717
   0.87693334  0.48526441  0.62361266
   0.13826543  0.75063373  0.62370607
   0.36650335  0.75065376  0.61980264
   0.63025005  0.75162595  0.62695221
   0.88103433  0.74641466  0.61975801
   0.11811458  0.99630021  0.87268221
   0.36708926  0.98970759  0.88303840
   0.61691505  0.99063321  0.87768061
   0.87158710  0.98946347  0.89568281
   0.12525065  0.25280482  0.89107340
   0.37520879  0.25667339  0.88538467
   0.63581141  0.24468253  0.86566078
   0.88122308  0.24518321  0.88308255
   0.13054395  0.50114495  0.87115544
   0.37492763  0.48699822  0.87047059
   0.62847315  0.49477670  0.86583417
   0.88047073  0.49663515  0.86687381
   0.12921637  0.75279474  0.86991540
   0.37774333  0.74206060  0.87260226
   0.61811038  0.73176639  0.88036173
   0.88283994  0.75144146  0.87580908
   0.11255779  0.12524653  0.99418671
   0.36612434  0.12293160  0.00422432
   0.63017000  0.13272060  0.99281749
   0.87901458  0.12605745  0.00712361
   0.12272743  0.38567039  0.00149658
   0.37522433  0.37935632  0.99945016
   0.62233220  0.37093067  0.98697067
   0.87835781  0.38542271  0.00174067
   0.12425993  0.63722601  0.98178542
   0.37220418  0.61624147  0.99056185
   0.63892231  0.62210848  0.99844415
   0.88369336  0.62423933  0.98810761
   0.11921827  0.87426797  0.99078199
   0.37855073  0.88061705  0.99191465
   0.61741273  0.86571153  0.99744693
   0.86793141  0.87936466  0.00684040
   0.12870986  0.13687293  0.25210486
   0.37438163  0.12368657  0.25217294
   0.62568539  0.13780095  0.24352327
   0.88305106  0.12607604  0.25174714
   0.12220484  0.37253043  0.24364059
   0.38740122  0.38382039  0.25438287
   0.62590984  0.37234777  0.24090727
   0.87567983  0.38122182  0.24609351
   0.13352217  0.62354778  0.25354165
   0.38088584  0.62569039  0.23834477
   0.62434783  0.62325639  0.24508687
   0.88194204  0.63778320  0.23316463
   0.13658997  0.88805240  0.26019247
   0.37139643  0.87737859  0.24818473
   0.61944748  0.88049457  0.25100951
   0.87511593  0.87138512  0.24480331
   0.12116261  0.13018779  0.50084981
   0.36570591  0.12696636  0.50423929
   0.62018966  0.11247408  0.49619009
   0.87941536  0.12694431  0.49892068
   0.12183859  0.38769716  0.50554175
   0.37572183  0.38111343  0.49652397
   0.63134459  0.37043332  0.49892732
   0.88574666  0.36236874  0.49405129
   0.13015256  0.62736782  0.50164918
   0.37512832  0.62443753  0.49378747
   0.62284391  0.62601554  0.50467600
   0.89451913  0.61779355  0.49816123
   0.13027765  0.87087977  0.50886500
   0.36827558  0.87870091  0.49950697
   0.63159842  0.86535440  0.50824398
   0.88823007  0.87460398  0.50632809
   0.11692396  0.12181565  0.75549515
   0.36921189  0.13733956  0.76619900
   0.62792675  0.11733636  0.74168682
   0.86969742  0.12585255  0.74564642
   0.11985120  0.37697809  0.75783801
   0.36487005  0.37327573  0.74549270
   0.62555718  0.37491841  0.74709152
   0.86693969  0.36336542  0.74885875
   0.12856503  0.63283667  0.74761150
   0.36345800  0.62153125  0.74866425
   0.62542592  0.62372784  0.74009974
   0.87845716  0.62070127  0.74282450
   0.11259722  0.88882121  0.74308844
   0.38206391  0.87851125  0.74943957
   0.61701575  0.87360261  0.76397214
   0.85480104  0.87916628  0.75743106
   0.12777276  0.12674212  0.12347194
   0.36683969  0.12485186  0.13192423
   0.61579786  0.12538580  0.12048290
   0.87589024  0.12920724  0.12696995
   0.11393217  0.38027036  0.11957053
   0.38354156  0.38508597  0.11818109
   0.63525507  0.37649108  0.11897632
   0.87805401  0.37841069  0.12484284
   0.12404112  0.62992715  0.11020840
   0.37631427  0.62887137  0.11346671
   0.62737446  0.62080672  0.12607161
   0.87345007  0.63178009  0.12183512
   0.13019679  0.87900840  0.11773712
   0.35745700  0.86978851  0.13111741
   0.61944610  0.87351172  0.12227922