
     Program PHONON v.7.5 starts on 15Jan2026 at 19:31:48

     This program is part of the open-source Quantum ESPRESSO suite
     for quantum simulation of materials; please cite
         "P. Giannozzi et al., J. Phys.:Condens. Matter 21 395502 (2009);
         "P. Giannozzi et al., J. Phys.:Condens. Matter 29 465901 (2017);
         "P. Giannozzi et al., J. Chem. Phys. 152 154105 (2020);
          URL http://www.quantum-espresso.org",
     in publications or presentations arising from this work. More details at
     http://www.quantum-espresso.org/quote

     Parallel version (MPI & OpenMP), running on     128 processor cores
     Number of MPI processes:                 1
     Threads/MPI process:                   128

     MPI processes distributed on     1 nodes
     422776 MiB available memory on the printing compute node when the environment starts

     Reading input from NaCl.ph.in

     Reading xml data from directory:

     ./NaCl.save/

     Subspace diagonalization in iterative solution of the eigenvalue problem:
     a serial algorithm will be used

     file Na.pbe-spn-kjpaw_psl.0.2.UPF: wavefunction(s)  2P 3P renormalized
     file Cl.pbe-n-kjpaw_psl.0.1.UPF: wavefunction(s)  3S 3P renormalized

     IMPORTANT: XC functional enforced from input :
     Exchange-correlation= PBE
                           (   1   4   3   4   0   0   0)
     Any further DFT definition will be discarded
     Please, verify this is what you really want


     G-vector sticks info
     --------------------
     sticks:   dense  smooth     PW     G-vecs:    dense   smooth      PW
     Sum        1123    1123    337                24693    24693    3943

     Using Slab Decomposition


     Check: negative core charge=   -0.000005
     Reading collected, re-writing distributed wavefunctions in ./

     Number and degeneracy of irreps per q-point
       N         xq(1)         xq(2)         xq(3)   N irreps
       1   0.000000000   0.000000000   0.000000000       2
        3   3

     Calculation of q =    0.0000000   0.0000000   0.0000000

     phonons of NaCl

     bravais-lattice index     =            0
     lattice parameter (alat)  =       7.6036  a.u.
     unit-cell volume          =     310.8440 (a.u.)^3
     number of atoms/cell      =            2
     number of atomic types    =            2
     kinetic-energy cut-off    =      70.0000  Ry
     charge density cut-off    =     280.0000  Ry
     convergence threshold     =      1.0E-16
     beta                      =       0.7000
     number of iterations used =            4
     Exchange-correlation= PBE
                           (   1   4   3   4   0   0   0)


     celldm(1)=    7.60360  celldm(2)=    0.00000  celldm(3)=    0.00000
     celldm(4)=    0.00000  celldm(5)=    0.00000  celldm(6)=    0.00000

     crystal axes: (cart. coord. in units of alat)
               a(1) = (  0.0000  0.7071  0.7071 )
               a(2) = (  0.7071  0.0000  0.7071 )
               a(3) = (  0.7071  0.7071  0.0000 )

     reciprocal axes: (cart. coord. in units 2 pi/alat)
               b(1) = ( -0.7071  0.7071  0.7071 )
               b(2) = (  0.7071 -0.7071  0.7071 )
               b(3) = (  0.7071  0.7071 -0.7071 )


     Atoms inside the unit cell:

     Cartesian axes

     site n.  atom      mass           positions (alat units)
        1  Na     22.9898   tau(    1) = (    0.00000    0.00000    0.00000  )
        2  Cl     35.4530   tau(    2) = (    0.70711    0.70711    0.70711  )

     Computing dynamical matrix for
                    q = (   0.0000000   0.0000000   0.0000000 )

     49 Sym.Ops. (with q -> -q+G )


     G cutoff =  410.0498  (  24693 G-vectors)     FFT grid: ( 45, 45, 45)
     number of k points=    29
                       cart. coord. in units 2pi/alat
        k(    1) = (   0.0000000   0.0000000   0.0000000), wk =   0.0039062
        k(    2) = (   0.0883883   0.0883883  -0.0883883), wk =   0.0312500
        k(    3) = (   0.1767767   0.1767767  -0.1767767), wk =   0.0312500
        k(    4) = (   0.2651650   0.2651650  -0.2651650), wk =   0.0312500
        k(    5) = (  -0.3535534  -0.3535534   0.3535534), wk =   0.0156250
        k(    6) = (   0.1767767   0.0000000   0.0000000), wk =   0.0234375
        k(    7) = (   0.2651650   0.0883883  -0.0883883), wk =   0.0937500
        k(    8) = (   0.3535534   0.1767767  -0.1767767), wk =   0.0937500
        k(    9) = (  -0.2651650  -0.4419417   0.4419417), wk =   0.0937500
        k(   10) = (  -0.1767767  -0.3535534   0.3535534), wk =   0.0937500
        k(   11) = (  -0.0883883  -0.2651650   0.2651650), wk =   0.0937500
        k(   12) = (   0.0000000  -0.1767767   0.1767767), wk =   0.0468750
        k(   13) = (   0.3535534   0.0000000   0.0000000), wk =   0.0234375
        k(   14) = (   0.4419417   0.0883883  -0.0883883), wk =   0.0937500
        k(   15) = (  -0.1767767  -0.5303301   0.5303301), wk =   0.0937500
        k(   16) = (  -0.0883883  -0.4419417   0.4419417), wk =   0.0937500
        k(   17) = (   0.0000000  -0.3535534   0.3535534), wk =   0.0468750
        k(   18) = (   0.5303301   0.0000000   0.0000000), wk =   0.0234375
        k(   19) = (  -0.0883883  -0.6187184   0.6187184), wk =   0.0937500
        k(   20) = (   0.0000000  -0.5303301   0.5303301), wk =   0.0468750
        k(   21) = (  -0.7071068   0.0000000   0.0000000), wk =   0.0117188
        k(   22) = (   0.3535534   0.1767767   0.0000000), wk =   0.0937500
        k(   23) = (  -0.2651650  -0.4419417   0.6187184), wk =   0.1875000
        k(   24) = (  -0.1767767  -0.3535534   0.5303301), wk =   0.0937500
        k(   25) = (  -0.1767767  -0.5303301   0.7071068), wk =   0.0937500
        k(   26) = (  -0.0883883  -0.4419417   0.6187184), wk =   0.1875000
        k(   27) = (   0.0000000  -0.3535534   0.5303301), wk =   0.0937500
        k(   28) = (  -0.7071068   0.1767767   0.0000000), wk =   0.0468750
        k(   29) = (  -0.7071068   0.3535534   0.0000000), wk =   0.0234375

     PseudoPot. # 1 for Na read from file:
     /home/togo/code/q-e-qe-7.5/pseudo/Na.pbe-spn-kjpaw_psl.0.2.UPF
     MD5 check sum: cc8f2dd74ffbe928f7b69cf99ba9b327
     Pseudo is Projector augmented-wave, Zval =  9.0
     Generated using "atomic" code by A. Dal Corso  v.5.0.2 svn rev. 9415
     Shape of augmentation charge: PSQ
     Using radial grid of 1121 points,  4 beta functions with:
                l(1) =   0
                l(2) =   0
                l(3) =   1
                l(4) =   1
     Q(r) pseudized with 0 coefficients


     PseudoPot. # 2 for Cl read from file:
     /home/togo/code/q-e-qe-7.5/pseudo/Cl.pbe-n-kjpaw_psl.0.1.UPF
     MD5 check sum: c57bcf6588f50c5ec919311ada3dc462
     Pseudo is Projector augmented-wave + core cor, Zval =  7.0
     Generated using "atomic" code by A. Dal Corso  v.5.0.2 svn rev. 9415
     Shape of augmentation charge: PSQ
     Using radial grid of 1157 points,  4 beta functions with:
                l(1) =   0
                l(2) =   0
                l(3) =   1
                l(4) =   1
     Q(r) pseudized with 0 coefficients


     Mode symmetry, O_h (m-3m)  point group:


     Electric field:
     Dielectric constant
     Born effective charges as d Force / d E


     Atomic displacements:
     There are    2 irreducible representations

     Representation     1      3 modes -  To be done

     Representation     2      3 modes -  To be done



     Alpha used in Ewald sum =   2.8000
     PHONON       :   6m 9.85s CPU      3.22s WALL


     Electric Fields Calculation

      iter #   1 total cpu time :    28.6 secs   av.it.:  10.2
      thresh= 1.000E-02 alpha_mix =  0.700 |ddv_scf|^2 =  1.209E-07

      iter #   2 total cpu time :    40.2 secs   av.it.:  17.3
      thresh= 3.477E-05 alpha_mix =  0.700 |ddv_scf|^2 =  1.848E-08

      iter #   3 total cpu time :    51.5 secs   av.it.:  17.0
      thresh= 1.359E-05 alpha_mix =  0.700 |ddv_scf|^2 =  1.031E-09

      iter #   4 total cpu time :    62.8 secs   av.it.:  16.9
      thresh= 3.212E-06 alpha_mix =  0.700 |ddv_scf|^2 =  2.211E-12

      iter #   5 total cpu time :    74.5 secs   av.it.:  17.6
      thresh= 1.487E-07 alpha_mix =  0.700 |ddv_scf|^2 =  8.037E-15

      iter #   6 total cpu time :    85.9 secs   av.it.:  17.1
      thresh= 8.965E-09 alpha_mix =  0.700 |ddv_scf|^2 =  3.524E-16

      iter #   7 total cpu time :    97.4 secs   av.it.:  17.4
      thresh= 1.877E-09 alpha_mix =  0.700 |ddv_scf|^2 =  3.050E-18

     End of electric fields calculation

          Dielectric constant in cartesian axis

          (       2.474410241       0.000000000      -0.000000000 )
          (      -0.000000000       2.474410241      -0.000000000 )
          (       0.000000000      -0.000000000       2.474410241 )

          Effective charges (d Force / dE) in cartesian axis without acoustic sum rule applied (asr)

           atom    1  Na    Mean Z*:        1.09885
      Ex  (        1.09885        0.00000       -0.00000 )
      Ey  (        0.00000        1.09885       -0.00000 )
      Ez  (       -0.00000       -0.00000        1.09885 )
           atom    2  Cl    Mean Z*:       -1.10266
      Ex  (       -1.10266        0.00000       -0.00000 )
      Ey  (        0.00000       -1.10266        0.00000 )
      Ez  (        0.00000        0.00000       -1.10266 )

          Effective charges Sum: Mean:       -0.00381
             -0.00381        0.00000       -0.00000
              0.00000       -0.00381       -0.00000
             -0.00000       -0.00000       -0.00381

          Effective charges (d Force / dE) in cartesian axis with asr applied:
           atom    1  Na    Mean Z*:        1.10076
      E*x (        1.10076        0.00000        0.00000 )
      E*y (        0.00000        1.10076       -0.00000 )
      E*z (       -0.00000       -0.00000        1.10076 )
           atom    2  Cl    Mean Z*:       -1.10076
      E*x (       -1.10076       -0.00000       -0.00000 )
      E*y (       -0.00000       -1.10076        0.00000 )
      E*z (        0.00000        0.00000       -1.10076 )


     Representation #   1 modes #   1   2   3

     Self-consistent Calculation

      iter #   1 total cpu time :   108.8 secs   av.it.:   8.9
      thresh= 1.000E-02 alpha_mix =  0.700 |ddv_scf|^2 =  2.249E-07

      iter #   2 total cpu time :   120.8 secs   av.it.:  18.1
      thresh= 4.743E-05 alpha_mix =  0.700 |ddv_scf|^2 =  2.760E-08

      iter #   3 total cpu time :   132.8 secs   av.it.:  18.3
      thresh= 1.661E-05 alpha_mix =  0.700 |ddv_scf|^2 =  4.717E-10

      iter #   4 total cpu time :   144.7 secs   av.it.:  18.0
      thresh= 2.172E-06 alpha_mix =  0.700 |ddv_scf|^2 =  4.228E-12

      iter #   5 total cpu time :   156.7 secs   av.it.:  18.5
      thresh= 2.056E-07 alpha_mix =  0.700 |ddv_scf|^2 =  9.409E-15

      iter #   6 total cpu time :   168.8 secs   av.it.:  18.5
      thresh= 9.700E-09 alpha_mix =  0.700 |ddv_scf|^2 =  2.234E-16

      iter #   7 total cpu time :   180.8 secs   av.it.:  18.3
      thresh= 1.495E-09 alpha_mix =  0.700 |ddv_scf|^2 =  3.502E-18

     End of self-consistent calculation

     Convergence has been achieved


     Representation #   2 modes #   4   5   6

     Self-consistent Calculation

      iter #   1 total cpu time :   189.5 secs   av.it.:  11.9
      thresh= 1.000E-02 alpha_mix =  0.700 |ddv_scf|^2 =  6.745E-07

      iter #   2 total cpu time :   201.8 secs   av.it.:  19.0
      thresh= 8.213E-05 alpha_mix =  0.700 |ddv_scf|^2 =  3.066E-08

      iter #   3 total cpu time :   214.5 secs   av.it.:  19.7
      thresh= 1.751E-05 alpha_mix =  0.700 |ddv_scf|^2 =  2.609E-09

      iter #   4 total cpu time :   227.0 secs   av.it.:  19.2
      thresh= 5.108E-06 alpha_mix =  0.700 |ddv_scf|^2 =  8.306E-11

      iter #   5 total cpu time :   239.0 secs   av.it.:  18.3
      thresh= 9.114E-07 alpha_mix =  0.700 |ddv_scf|^2 =  3.600E-13

      iter #   6 total cpu time :   251.4 secs   av.it.:  19.3
      thresh= 6.000E-08 alpha_mix =  0.700 |ddv_scf|^2 =  1.432E-15

      iter #   7 total cpu time :   262.6 secs   av.it.:  16.9
      thresh= 3.784E-09 alpha_mix =  0.700 |ddv_scf|^2 =  1.040E-16

      iter #   8 total cpu time :   275.0 secs   av.it.:  19.1
      thresh= 1.020E-09 alpha_mix =  0.700 |ddv_scf|^2 =  3.742E-19

     End of self-consistent calculation

     Convergence has been achieved

     Number of q in the star =    1
     List of q in the star:
          1   0.000000000   0.000000000   0.000000000

          Dielectric constant in cartesian axis

          (       2.474410241       0.000000000      -0.000000000 )
          (      -0.000000000       2.474410241      -0.000000000 )
          (       0.000000000      -0.000000000       2.474410241 )

          Effective charges (d Force / dE) in cartesian axis without acoustic sum rule applied (asr)

           atom    1  Na    Mean Z*:        1.09885
      Ex  (        1.09885        0.00000       -0.00000 )
      Ey  (        0.00000        1.09885       -0.00000 )
      Ez  (       -0.00000       -0.00000        1.09885 )
           atom    2  Cl    Mean Z*:       -1.10266
      Ex  (       -1.10266        0.00000       -0.00000 )
      Ey  (        0.00000       -1.10266        0.00000 )
      Ez  (        0.00000        0.00000       -1.10266 )

          Effective charges Sum: Mean:       -0.00381
             -0.00381        0.00000       -0.00000
              0.00000       -0.00381       -0.00000
             -0.00000       -0.00000       -0.00381

          Effective charges (d Force / dE) in cartesian axis with asr applied:
           atom    1  Na    Mean Z*:        1.10076
      E*x (        1.10076        0.00000        0.00000 )
      E*y (        0.00000        1.10076       -0.00000 )
      E*z (       -0.00000       -0.00000        1.10076 )
           atom    2  Cl    Mean Z*:       -1.10076
      E*x (       -1.10076       -0.00000       -0.00000 )
      E*y (       -0.00000       -1.10076        0.00000 )
      E*z (        0.00000        0.00000       -1.10076 )

     Diagonalizing the dynamical matrix

     q = (    0.000000000   0.000000000   0.000000000 )

 **************************************************************************
     freq (    1) =      -0.280722 [THz] =      -9.363891 [cm-1]
     freq (    2) =      -0.280722 [THz] =      -9.363891 [cm-1]
     freq (    3) =      -0.280722 [THz] =      -9.363891 [cm-1]
     freq (    4) =       4.562975 [THz] =     152.204462 [cm-1]
     freq (    5) =       4.562975 [THz] =     152.204462 [cm-1]
     freq (    6) =       4.562975 [THz] =     152.204462 [cm-1]
 **************************************************************************

     Mode symmetry, O_h (m-3m)  point group:

     freq (   1-   3) =         -9.4  [cm-1]   --> T_1u G_15  G_4- I
     freq (   4-   6) =        152.2  [cm-1]   --> T_1u G_15  G_4- I

     PHONON       :      9h16m CPU   4m35.37s WALL

     INITIALIZATION:
     phq_setup    :      3.06s CPU      0.03s WALL (       1 calls)
     phq_init     :    178.53s CPU      1.47s WALL (       1 calls)

     phq_init     :    178.53s CPU      1.47s WALL (       1 calls)
     set_drhoc    :      0.08s CPU      0.00s WALL (       3 calls)
     init_vloc    :      2.75s CPU      0.02s WALL (       1 calls)
     init_us_1    :     11.79s CPU      0.11s WALL (       1 calls)
     init_us_2    :     98.41s CPU      0.82s WALL (    1015 calls)
     newd         :      3.98s CPU      0.03s WALL (       1 calls)
     dvanqq       :     13.83s CPU      0.12s WALL (       1 calls)
     drho         :    144.38s CPU      1.18s WALL (       1 calls)
     drhous       :    135.17s CPU      1.11s WALL (       1 calls)
     nldyntot     :      0.45s CPU      0.00s WALL (       1 calls)
     cmpt_qdipol  :      0.00s CPU      0.00s WALL (       1 calls)

     DIELECTRIC CONSTANT AND EFFECTIVE CHARGES:
     solve_e      :  11443.11s CPU     94.22s WALL (       1 calls)
     dielec       :      3.58s CPU      0.03s WALL (       1 calls)
     zstar_eu     :    522.04s CPU      4.35s WALL (       1 calls)

     DYNAMICAL MATRIX:
     dynmat0      :     12.86s CPU      0.11s WALL (       1 calls)
     dynmat_us    :     10.94s CPU      0.09s WALL (       1 calls)
     addusdynmat  :      0.00s CPU      0.00s WALL (       1 calls)
     d2ionq       :      0.25s CPU      0.00s WALL (       1 calls)
     dynmatcc     :      0.75s CPU      0.01s WALL (       1 calls)
     phqscf       :  21048.64s CPU    173.44s WALL (       1 calls)
     dynmatrix    :      0.74s CPU      0.01s WALL (       1 calls)

     phqscf       :  21048.64s CPU    173.44s WALL (       1 calls)
     solve_linter :  21006.70s CPU    173.08s WALL (       2 calls)
     dfpt_kernel  :  30105.97s CPU    248.01s WALL (       3 calls)
     sth_kernel   :  28280.45s CPU    232.64s WALL (      22 calls)
     h_prec       :     25.03s CPU      0.21s WALL (     725 calls)
     apply_dpot_b :    864.09s CPU      7.11s WALL (    1653 calls)
     ortho        :    106.80s CPU      0.88s WALL (    2001 calls)
     cgsolve      :  27983.07s CPU    230.16s WALL (    2001 calls)
     incdrhoscf   :   1180.62s CPU      9.70s WALL (    2001 calls)
                                        0.00s GPU  (    2001 calls)
     addusddens   :     53.70s CPU      0.45s WALL (      17 calls)
     dv_of_drho   :     47.55s CPU      0.40s WALL (      69 calls)
     mix_pot      :    163.44s CPU      1.38s WALL (      22 calls)
     drhodv       :     32.43s CPU      0.27s WALL (       2 calls)
     psymdvscf    :    411.31s CPU      3.46s WALL (      23 calls)
     newdq        :    127.23s CPU      1.07s WALL (      22 calls)
     adddvscf     :     94.55s CPU      0.79s WALL (    1653 calls)
     com_dvloc    :     16.63s CPU      0.16s WALL (     366 calls)
                                        0.00s GPU  (     366 calls)
     addcore      :      2.51s CPU      0.02s WALL (      66 calls)
                                        0.00s GPU  (      66 calls)
     drhodvus     :      0.66s CPU      0.01s WALL (       2 calls)

     dvqpsi_us    :    239.27s CPU      1.97s WALL (     348 calls)
                                        0.00s GPU  (     348 calls)
     dvqpsi_us_on :     43.11s CPU      0.36s WALL (     348 calls)

     add_vuspsi   :    166.14s CPU      1.59s WALL (   44031 calls)
     addusdbec    :     24.82s CPU      0.21s WALL (    2175 calls)

     drhodvus     :      0.66s CPU      0.01s WALL (       2 calls)

      General routines
     calbec       :    749.45s CPU      6.37s WALL (   97574 calls)
     fft          :    144.19s CPU      1.28s WALL (    1183 calls)
     ffts         :      7.80s CPU      0.09s WALL (     366 calls)
     fftw         :   3247.58s CPU     62.00s WALL (  647182 calls)
     davcio       :    233.07s CPU      1.95s WALL (    9250 calls)
     write_rec    :     96.39s CPU      0.82s WALL (      24 calls)

      Additional routines
     ch_psi       :  24308.31s CPU    199.75s WALL (   44031 calls)
     last         :   2447.72s CPU     20.05s WALL (   44031 calls)
     Hesh         :    154.16s CPU      1.28s WALL (   44031 calls)
     ch_psi_all_k :   2193.72s CPU     18.06s WALL (   44031 calls)
                                        0.00s GPU  (   44031 calls)
     ch_psi_calbe :    394.18s CPU      3.34s WALL (   44031 calls)
                                        0.00s GPU  (   44031 calls)
     h_psi_bgrp   :  19922.10s CPU    163.38s WALL (   44031 calls)
     h_psi        :  19857.59s CPU    162.91s WALL (   44031 calls)
     h_psi:pot    :  18704.64s CPU    153.47s WALL (   44031 calls)
     h_psi:calbec :    381.63s CPU      3.24s WALL (   44031 calls)
     s_psi_bgrp   :    578.35s CPU      5.24s WALL (   90150 calls)
     s_psi        :    261.00s CPU      2.94s WALL (   90150 calls)


     PHONON       :      9h16m CPU   4m35.37s WALL


   This run was terminated on:  19:36:24  15Jan2026

=------------------------------------------------------------------------------=
   JOB DONE.
=------------------------------------------------------------------------------=
