  MPI-parallelism will be employed.
------------------------------------------------------------
          Invoking FHI-aims ...
          Version workshop
          Compiled on 2009/06/20 at 17:37:41

          When using FHI-aims, please cite the following reference:

          Volker Blum, Ralf Gehrke, Felix Hanke, Paula Havu,
          Ville Havu, Xinguo Ren, Karsten Reuter, and Matthias Scheffler,
          'Ab Initio Molecular Simulations with Numeric Atom-Centered Orbitals: FHI-aims',
          Computer Physics Communications [volume], [page] (2008).

------------------------------------------------------------

  Date     :  20091203, Time     :  020547.220
  Time zero on CPU 1             :   0.400000000000000E-01  s.
  Internal wall clock time zero  :            29037947.220  s.

  Using       16 parallel tasks.
  Task        0 on host thp510 reporting.
  Obtaining array dimensions for all initial allocations:
  Parsing control.in ...
  MPI-parallelism will be employed.
  Task        1 on host thp510 reporting.
  MPI-parallelism will be employed.
  Task        2 on host thp510 reporting.
  MPI-parallelism will be employed.
  Task        3 on host thp510 reporting.
  MPI-parallelism will be employed.
  Task        4 on host thp510 reporting.
  MPI-parallelism will be employed.
  Task        5 on host thp510 reporting.
  MPI-parallelism will be employed.
  Task        6 on host thp510 reporting.
  MPI-parallelism will be employed.
  Task        7 on host thp510 reporting.
  MPI-parallelism will be employed.
  Task        8 on host thp510 reporting.
  MPI-parallelism will be employed.
  Task        9 on host thp510 reporting.
  MPI-parallelism will be employed.
  Task       10 on host thp510 reporting.
  MPI-parallelism will be employed.
  Task       11 on host thp510 reporting.
  MPI-parallelism will be employed.
  Task       12 on host thp510 reporting.
  MPI-parallelism will be employed.
  Task       13 on host thp510 reporting.
  MPI-parallelism will be employed.
  Task       14 on host thp510 reporting.
  MPI-parallelism will be employed.
  Task       15 on host thp510 reporting.
  Parsing geometry.in ...
 
  Basic array size parameters: 
  | Number of species                 :        2
  | Number of atoms                   :      128
  | Number of lattice vectors         :        3
  | Max. basis fn. angular momentum   :        4
  | Max. atomic/ionic basis occupied n:        3
  | Max. number of basis fn. types    :        3
  | Max. radial fns per species/type  :        5
  | Max. logarithmic grid size        :     1362
  | Max. radial integration grid size :       91
  | Max. angular integration grid size:      590
  | Max. angular grid division number :        8
  | Radial grid for Hartree potential :     1362
  | Number of spin channels           :        1

------------------------------------------------------------
          Reading file control.in.
------------------------------------------------------------
  XC: Using PBE gradient-corrected functionals.
  Spin treatment: No spin polarisation.
  Scalar relativistic treatment of kinetic energy: on-site free-atom approximation to ZORA.
  Charge =   0.000000E+00: Neutral system requested explicitly.
  Found k-point grid:         1         1         1
  Occupation type: Gaussian broadening, width =   0.100000E-01 eV.
  Using pulay charge density mixing.
  Pulay mixing - number of memorized iterations:   10
  Convergence accuracy of self-consistent charge density: 0.1000E-04
  Convergence accuracy of sum of eigenvalues: 0.1000E-01
  Convergence accuracy of total energy: 0.1000E-05
  Convergence accuracy of forces: 0.1000E-03
  Maximum number of s.-c. iterations  :   100
  Kohn-Sham eigenvalues and eigenfunctions calculated by modified ScaLAPACK (scalapack_fast).
  Number of empty states per atom:   3
  Threshold for basis singularities: 0.1000E-03
 
  Reading configuration options for species Na                  .
  | Found nuclear charge :  11
  | Found atomic mass :  22.9897692800000009 amu
  | Found l_max for Hartree potential  :   4
  | Found cutoff potl. onset [A], width [A], scale factor :    4.00000    2.00000    1.00000
  | Threshold for basis-dependent cutoff potential is   0.100000E-03
  | Found data for basic radial integration grid :    40 points, outermost radius =    7.000 A
  | Found multiplier for basic radial grid :   2
  | Found angular grid specification: user-specified.
  | Specified grid contains     6 separate shells.
  | Check grid settings after all constraints further below.
  | Found free-atom valence shell :  3 s   1.000
  | Found free-atom valence shell :  2 p   6.000
  | Found free-ion valence shell :  2 s   2.000
  | Found free-ion valence shell :  2 p   6.000
  | Found hydrogenic basis function :  2 p   1.200
  | Found hydrogenic basis function :  3 s   1.800
  | Found hydrogenic basis function :  3 d   3.800
  Species Na                  : Missing cutoff potential type.
  Defaulting to exp(1/x)/(1-x)^2 type cutoff potential.
  Species Na: No 'logarithmic' tag. Using default grid for free atom:
  | Default logarithmic grid data [bohr] : 0.1000E-03 0.1000E+03 0.1012E+01
  Species Na: On-site basis accuracy parameter (for Gram-Schmidt orthonormalisation) not specified.
  Using default value basis_acc =  0.1000000E-03.
  Species Na                  : Using default innermost maximum threshold i_radial=  2 for radial functions.
  Species Na                  : Default cutoff onset for free atom density etc. : 0.40000000E+01 AA.
  Species Na                  : Basic radial grid will be enhanced according to radial_multiplier =   2, to contain    81 grid points.
 
  Reading configuration options for species Cl                  .
  | Found nuclear charge :  17
  | Found atomic mass :  35.4530000000000030 amu
  | Found l_max for Hartree potential  :   4
  | Found cutoff potl. onset [A], width [A], scale factor :    4.00000    2.00000    1.00000
  | Threshold for basis-dependent cutoff potential is   0.100000E-03
  | Found data for basic radial integration grid :    45 points, outermost radius =    7.000 A
  | Found multiplier for basic radial grid :   2
  | Found angular grid specification: user-specified.
  | Specified grid contains     6 separate shells.
  | Check grid settings after all constraints further below.
  | Found free-atom valence shell :  3 s   2.000
  | Found free-atom valence shell :  3 p   5.000
  | Found free-ion valence shell :  3 s   1.000
  | Found free-ion valence shell :  3 p   4.000
  | Found ionic basis function :  3 d , default cutoff radius.
  | Found hydrogenic basis function :  2 p   1.900
  | Found hydrogenic basis function :  4 f   7.400
  | Found ionic basis function :  3 s , default cutoff radius.
  | Found hydrogenic basis function :  5 g  10.400
  Species Cl                  : Missing cutoff potential type.
  Defaulting to exp(1/x)/(1-x)^2 type cutoff potential.
  Species Cl: No 'logarithmic' tag. Using default grid for free atom:
  | Default logarithmic grid data [bohr] : 0.1000E-03 0.1000E+03 0.1012E+01
  | Will include ionic basis functions of  2.0-fold positive Cl                   ion.
  Species Cl: On-site basis accuracy parameter (for Gram-Schmidt orthonormalisation) not specified.
  Using default value basis_acc =  0.1000000E-03.
  Species Cl                  : Using default innermost maximum threshold i_radial=  2 for radial functions.
  Species Cl                  : Default cutoff onset for free atom density etc. : 0.40000000E+01 AA.
  Species Cl                  : Basic radial grid will be enhanced according to radial_multiplier =   2, to contain    91 grid points.
 
  Input file control.in ends. 
  Target number of points in a grid batch is not set. Defaulting to  100
  Method for grid partitioning is not set. Defaulting to parallel hash+maxmin partitioning.
  Batch size limit is not set. Defaulting to    200
  By default, will store active basis functions for each batch.
  If in need of memory, prune_basis_once .false. can be used to disable this option.
  Pulay mixer: Number of initial linear mixing iterations not set.
  Defaulting to    0 iterations.
  Work space size for distributed Hartree potential not set.
  Defaulting to   0.200000E+03 MB.
  Mixing parameter for charge density mixing has not been set.
  Using default: charge_mix_param =     0.6000.
  Algorithm-dependent basis array size parameters:
  | n_max_pulay                         :       10
  Geometry relaxation not requested: no relaxation will be performed.
  Handling of forces: Unphysical translation and rotation will be removed from forces.
  No accuracy limit for integral partition fn. given. Defaulting to 0.1000E-14.
  No threshold value for u(r) in integrations given. Defaulting to 0.1000E-05.
  No accuracy for occupation numbers given. Defaulting to 0.1000E-07.
  No threshold value for occupation numbers given. Defaulting to 0.0000E+00.
  No accuracy for fermi level given. Defaulting to 0.1000E-19.
  Maximum # of iterations to find E_F not set. Defaulting to  200.
  Partitioning for integrals was not defined. Using the partition function of Stratmann and coworkers.
  Partitioning for Hartree potential was not defined. Using partition_type for integrals.
  No q(lm)/r^(l+1) cutoff set for long-range Hartree potential.
  | Using default value of  0.100000E-09 .
  | Verify using the multipole_threshold keyword.
  Using density matrix based charge density update.
  Using packed matrix style: index .
------------------------------------------------------------


------------------------------------------------------------
          Reading geometry description geometry.in.
------------------------------------------------------------
  Input structure read successfully. 
  The structure contains  128 atoms,  and a total of   1792.000 electrons.
 
  Input geometry:
  | Unit cell: 
  |         0.000000        11.398000        11.398000
  |        11.398000         0.000000        11.398000
  |        11.398000        11.398000         0.000000
  | Atomic structure: 
  |       Atom                x [A]            y [A]            z [A]
  |    1: Species Na         0.000000         0.000000         0.000000
  |    2: Species Na         0.000000         2.849500         2.849500
  |    3: Species Na         0.000000         5.699000         5.699000
  |    4: Species Na         0.000000         8.548500         8.548500
  |    5: Species Na         2.849500         0.000000         2.849500
  |    6: Species Na         2.849500         2.849500         5.699000
  |    7: Species Na         2.849500         5.699000         8.548500
  |    8: Species Na         2.849500         8.548500        11.398000
  |    9: Species Na         5.699000         0.000000         5.699000
  |   10: Species Na         5.699000         2.849500         8.548500
  |   11: Species Na         5.699000         5.699000        11.398000
  |   12: Species Na         5.699000         8.548500        14.247500
  |   13: Species Na         8.548500         0.000000         8.548500
  |   14: Species Na         8.548500         2.849500        11.398000
  |   15: Species Na         8.548500         5.699000        14.247500
  |   16: Species Na         8.548500         8.548500        17.097000
  |   17: Species Na         2.849500         2.849500         0.000000
  |   18: Species Na         2.849500         5.699000         2.849500
  |   19: Species Na         2.849500         8.548500         5.699000
  |   20: Species Na         2.849500        11.398000         8.548500
  |   21: Species Na         5.699000         2.849500         2.849500
  |   22: Species Na         5.699000         5.699000         5.699000
  |   23: Species Na         5.699000         8.548500         8.548500
  |   24: Species Na         5.699000        11.398000        11.398000
  |   25: Species Na         8.548500         2.849500         5.699000
  |   26: Species Na         8.548500         5.699000         8.548500
  |   27: Species Na         8.548500         8.548500        11.398000
  |   28: Species Na         8.548500        11.398000        14.247500
  |   29: Species Na        11.398000         2.849500         8.548500
  |   30: Species Na        11.398000         5.699000        11.398000
  |   31: Species Na        11.398000         8.548500        14.247500
  |   32: Species Na        11.398000        11.398000        17.097000
  |   33: Species Na         5.699000         5.699000         0.000000
  |   34: Species Na         5.699000         8.548500         2.849500
  |   35: Species Na         5.699000        11.398000         5.699000
  |   36: Species Na         5.699000        14.247500         8.548500
  |   37: Species Na         8.548500         5.699000         2.849500
  |   38: Species Na         8.548500         8.548500         5.699000
  |   39: Species Na         8.548500        11.398000         8.548500
  |   40: Species Na         8.548500        14.247500        11.398000
  |   41: Species Na        11.398000         5.699000         5.699000
  |   42: Species Na        11.398000         8.548500         8.548500
  |   43: Species Na        11.398000        11.398000        11.398000
  |   44: Species Na        11.398000        14.247500        14.247500
  |   45: Species Na        14.247500         5.699000         8.548500
  |   46: Species Na        14.247500         8.548500        11.398000
  |   47: Species Na        14.247500        11.398000        14.247500
  |   48: Species Na        14.247500        14.247500        17.097000
  |   49: Species Na         8.548500         8.548500         0.000000
  |   50: Species Na         8.548500        11.398000         2.849500
  |   51: Species Na         8.548500        14.247500         5.699000
  |   52: Species Na         8.548500        17.097000         8.548500
  |   53: Species Na        11.398000         8.548500         2.849500
  |   54: Species Na        11.398000        11.398000         5.699000
  |   55: Species Na        11.398000        14.247500         8.548500
  |   56: Species Na        11.398000        17.097000        11.398000
  |   57: Species Na        14.247500         8.548500         5.699000
  |   58: Species Na        14.247500        11.398000         8.548500
  |   59: Species Na        14.247500        14.247500        11.398000
  |   60: Species Na        14.247500        17.097000        14.247500
  |   61: Species Na        17.097000         8.548500         8.548500
  |   62: Species Na        17.097000        11.398000        11.398000
  |   63: Species Na        17.097000        14.247500        14.247500
  |   64: Species Na        17.097000        17.097000        17.097000
  |   65: Species Cl         2.849500         2.856571         2.856571
  |   66: Species Cl         2.849500         5.699000         5.699000
  |   67: Species Cl         2.849500         8.548500         8.548500
  |   68: Species Cl         2.849500        11.398000        11.398000
  |   69: Species Cl         5.699000         2.849500         5.699000
  |   70: Species Cl         5.699000         5.699000         8.548500
  |   71: Species Cl         5.699000         8.548500        11.398000
  |   72: Species Cl         5.699000        11.398000        14.247500
  |   73: Species Cl         8.548500         2.849500         8.548500
  |   74: Species Cl         8.548500         5.699000        11.398000
  |   75: Species Cl         8.548500         8.548500        14.247500
  |   76: Species Cl         8.548500        11.398000        17.097000
  |   77: Species Cl        11.398000         2.849500        11.398000
  |   78: Species Cl        11.398000         5.699000        14.247500
  |   79: Species Cl        11.398000         8.548500        17.097000
  |   80: Species Cl        11.398000        11.398000        19.946500
  |   81: Species Cl         5.699000         5.699000         2.849500
  |   82: Species Cl         5.699000         8.548500         5.699000
  |   83: Species Cl         5.699000        11.398000         8.548500
  |   84: Species Cl         5.699000        14.247500        11.398000
  |   85: Species Cl         8.548500         5.699000         5.699000
  |   86: Species Cl         8.548500         8.548500         8.548500
  |   87: Species Cl         8.548500        11.398000        11.398000
  |   88: Species Cl         8.548500        14.247500        14.247500
  |   89: Species Cl        11.398000         5.699000         8.548500
  |   90: Species Cl        11.398000         8.548500        11.398000
  |   91: Species Cl        11.398000        11.398000        14.247500
  |   92: Species Cl        11.398000        14.247500        17.097000
  |   93: Species Cl        14.247500         5.699000        11.398000
  |   94: Species Cl        14.247500         8.548500        14.247500
  |   95: Species Cl        14.247500        11.398000        17.097000
  |   96: Species Cl        14.247500        14.247500        19.946500
  |   97: Species Cl         8.548500         8.548500         2.849500
  |   98: Species Cl         8.548500        11.398000         5.699000
  |   99: Species Cl         8.548500        14.247500         8.548500
  |  100: Species Cl         8.548500        17.097000        11.398000
  |  101: Species Cl        11.398000         8.548500         5.699000
  |  102: Species Cl        11.398000        11.398000         8.548500
  |  103: Species Cl        11.398000        14.247500        11.398000
  |  104: Species Cl        11.398000        17.097000        14.247500
  |  105: Species Cl        14.247500         8.548500         8.548500
  |  106: Species Cl        14.247500        11.398000        11.398000
  |  107: Species Cl        14.247500        14.247500        14.247500
  |  108: Species Cl        14.247500        17.097000        17.097000
  |  109: Species Cl        17.097000         8.548500        11.398000
  |  110: Species Cl        17.097000        11.398000        14.247500
  |  111: Species Cl        17.097000        14.247500        17.097000
  |  112: Species Cl        17.097000        17.097000        19.946500
  |  113: Species Cl        11.398000        11.398000         2.849500
  |  114: Species Cl        11.398000        14.247500         5.699000
  |  115: Species Cl        11.398000        17.097000         8.548500
  |  116: Species Cl        11.398000        19.946500        11.398000
  |  117: Species Cl        14.247500        11.398000         5.699000
  |  118: Species Cl        14.247500        14.247500         8.548500
  |  119: Species Cl        14.247500        17.097000        11.398000
  |  120: Species Cl        14.247500        19.946500        14.247500
  |  121: Species Cl        17.097000        11.398000         8.548500
  |  122: Species Cl        17.097000        14.247500        11.398000
  |  123: Species Cl        17.097000        17.097000        14.247500
  |  124: Species Cl        17.097000        19.946500        17.097000
  |  125: Species Cl        19.946500        11.398000        11.398000
  |  126: Species Cl        19.946500        14.247500        14.247500
  |  127: Species Cl        19.946500        17.097000        17.097000
  |  128: Species Cl        19.946500        19.946500        19.946500
 
  Structure-dependent array size parameters: 
  | Maximum number of distinct radial functions  :       17
  | Maximum number of basis functions            :     3136
  | Number of Kohn-Sham states (occupied + empty):     1088
------------------------------------------------------------
  | Super cell volume                              :   0.296153E+04  A^3
  | Reciprocial lattice vector 1: -0.275627  0.275627  0.275627
  | Reciprocial lattice vector 2:  0.275627 -0.275627  0.275627
  | Reciprocial lattice vector 3:  0.275627  0.275627 -0.275627

------------------------------------------------------------
          Preparing all fixed parts of the calculation.
------------------------------------------------------------
  Determining machine precision:
   0.222507385850720138E-307
  Setting up grids for atomic and cluster calculations.

  Creating wave function, potential, and density for free atoms.

  Species: Na

  List of occupied orbitals and eigenvalues:
    n    l      energy [Ha]    energy [eV]
    1    0       -38.025394     -1034.7236
    2    0        -2.072071       -56.3839
    3    0        -0.089934        -2.4472
    2    1        -1.040071       -28.3018


  Species: Cl

  List of occupied orbitals and eigenvalues:
    n    l      energy [Ha]    energy [eV]
    1    0      -101.452858     -2760.6727
    2    0        -9.289412      -252.7778
    3    0        -0.760218       -20.6866
    2    1        -7.043793      -191.6714
    3    1        -0.315674        -8.5899

  Creating fixed part of basis set: Ionic, confined, hydrogenic.
 
  Na                   hydrogenic:
 
  List of hydrogenic basis orbitals: 
    n    l      effective z      eigenvalue [eV]  inner max. [A]     outer max. [A]     cutoff onset [A]   
    2    1         1.200000        -4.7493           1.720587           1.720587           4.000000
    3    0         1.800000        -3.1623           0.215330           3.209579           4.000000
    3    2         3.800000       -21.8280           1.252092           1.252092           4.000000
 
 
  Cl                   ion:

  List of free ionic orbitals and eigenvalues:
    n    l      energy [Ha]    energy [eV]
    1    0      -102.554413     -2790.6476
    2    0       -10.359555      -281.8978
    3    0        -1.672516       -45.5115
    2    1        -8.116241      -220.8542
    3    1        -1.184158       -32.2226


  List of ionic basis orbitals and eigenvalues:
    n    l      energy [Ha]    energy [eV]    wfn radius [A]
    3    2        -0.528061       -14.3693       4.000000
    3    0        -1.672511       -45.5113       2.434512

 
  Cl                   hydrogenic:
 
  List of hydrogenic basis orbitals: 
    n    l      effective z      eigenvalue [eV]  inner max. [A]     outer max. [A]     cutoff onset [A]   
    2    1         1.900000       -12.2741           1.113321           1.113321           4.000000
    4    3         7.400000       -46.5653           1.140877           1.140877           3.556301
    5    4        10.400000       -58.8635           1.273568           1.273568           3.556301
 

  Adding cutoff potential to free-atom effective potential.
  Creating atomic-like basis functions for current effective potential.
  Assembling full basis from fixed parts.
  | Species Na :   atomic orbital   1 s accepted.
  | Species Na :   atomic orbital   2 s accepted.
  | Species Na :   atomic orbital   3 s accepted.
  | Species Na :    hydro orbital   3 s accepted.
  | Species Na :   atomic orbital   2 p accepted.
  | Species Na :    hydro orbital   2 p accepted.
  | Species Na :    hydro orbital   3 d accepted.
  | Species Cl :   atomic orbital   2 s accepted.
  | Species Cl :   atomic orbital   3 s accepted.
  | Species Cl :    ionic orbital   3 s accepted.
  | Species Cl :   atomic orbital   1 s accepted.
  | Species Cl :   atomic orbital   2 p accepted.
  | Species Cl :   atomic orbital   3 p accepted.
  | Species Cl :    hydro orbital   2 p accepted.
  | Species Cl :    ionic orbital   3 d accepted.
  | Species Cl :    hydro orbital   4 f accepted.
  | Species Cl :    hydro orbital   5 g accepted.
 
  Basis size parameters after reduction:
  | Total number of radial functions:       17
  | Total number of basis functions :     3136
 
  Preparing densities etc. for the partition functions (integrals / Hartree potential).

  Preparations completed.
  max(cpu_time)          :      0.840 s.
  Wall clock time (cpu1) :      0.837 s.
------------------------------------------------------------

------------------------------------------------------------
          Begin self-consistency loop: Initialization.

          Date     :  20091203, Time     :  020548.069
------------------------------------------------------------

  Initializing index lists of integration centers etc. from given atomic structure:
  Mapping all atomic coordinates to central Wigner-Seitz unit cell.

  Initializing the k-points
  | Number of k-points                             :         1
  The eigenvectors in the calculations are REAL.
  | Number of basis functions in the Hamiltonian integrals :     15989
  | Number of basis functions in a single unit cell        :      3136
  | Number of centers in hamiltonian partition_tab :       128
  | Number of centers in hartree potential         :      2247
  | Number of centers in hartree multipole         :      2000
  | Number of centers in electron density summation:      1556
  | Number of centers in basis integrals           :      1569
  | Number of centers in integrals                 :       773
  | Number of super-cells :         28
  | Size of matrix packed + index : 7311233
 Using modified Scalapack Eigenvalue solver (scalapack_fast)
 Calculating blocksize based on n_basis =  3136  max_nprow =  4  max_npcol =  4
 Scalapack blocksize set to:  16
 Required Scalapack workspace - INTEGER:  1  REAL:   1
  Partitioning the integration grid into batches with parallel hashing+maxmin method.
  | Number of batches:    52224
  | Maximal batch size:      86
  | Minimal batch size:      62
  | Average batch size:      69.789
  | Standard deviation of batch sizes:       6.262
 
  Integration load balanced across    16 MPI tasks. 
  Work distribution over tasks is as follows:
  Task     0 has     227753 integration points.
  Task     1 has     227752 integration points.
  Task     2 has     227801 integration points.
  Task     3 has     227754 integration points.
  Task     4 has     227803 integration points.
  Task     5 has     227831 integration points.
  Task     6 has     227803 integration points.
  Task     7 has     227830 integration points.
  Task     8 has     227802 integration points.
  Task     9 has     227752 integration points.
  Task    10 has     227800 integration points.
  Task    11 has     227799 integration points.
  Task    12 has     227832 integration points.
  Task    13 has     227806 integration points.
  Task    14 has     227802 integration points.
  Task    15 has     227752 integration points.
  Initializing partition tables, free-atom densities, potentials, etc.
  across the integration grid (initialize_grid_storage).
  | Net number of integration points:  3644672
  | of which are non-zero points    :  2876804
  | Average free-atom electrostatic potential              :     -9.29264546 eV
  Obtaining max. number of non-zero basis functions in each batch (get_n_compute_maxes).
  | Maximal number of non-zero basis functions:      800 in task     0
  For each atomic center, finding distance to closest integration grid point.
  | Maximal number of non-zero basis functions:      792 in task     1
  | Maximal number of non-zero basis functions:      800 in task     2
  | Maximal number of non-zero basis functions:      795 in task     3
  | Maximal number of non-zero basis functions:      805 in task     4
  | Maximal number of non-zero basis functions:      793 in task     5
  | Maximal number of non-zero basis functions:      801 in task     6
  | Maximal number of non-zero basis functions:      794 in task     7
  | Maximal number of non-zero basis functions:      795 in task     8
  | Maximal number of non-zero basis functions:      796 in task     9
  | Maximal number of non-zero basis functions:      793 in task    10
  | Maximal number of non-zero basis functions:      791 in task    11
  | Maximal number of non-zero basis functions:      804 in task    12
  | Maximal number of non-zero basis functions:      795 in task    13
  | Maximal number of non-zero basis functions:      798 in task    14
  | Maximal number of non-zero basis functions:      804 in task    15
  Integrating overlap matrix.
  Integrating Hamiltonian matrix: batch-based integration.
 Decreasing sparse matrix size
   Tolerance: 0.999999982451670044E-13
   Hamiltonian matrix
  | Array has  5451726 nonzero elements out of  7311233 elements
  | Sparsity factor is 0.254
   Overlap matrix
  | Array has  4929874 nonzero elements out of  7311233 elements
  | Sparsity factor is 0.326
  New size of hamiltonian matrix:     5468990
  Deallocating overlap matrix.

  Updating Kohn-Sham eigenvalues, eigenvectors, occupation numbers, and Fermi level.
  Solving real symmetric generalised eigenvalue problem by standard ScaLAPACK.
  Transforming overlap matrix with ScaLAPACK and checking for singularities.
  Factoring overlap matrix with Cholesky decomposition
  : Overlap matrix is nonsingular, using Cholesky decomposition
  | Lowest eigenvalue:  0.542926E-03
  Using Cholesky factor for transformation
  Determining occupation numbers for Kohn-Sham eigenstates.
  | Chemical potential (Fermi level) in eV                 : -.83689862E+01
  | Error in electron count due to remaining E_F inaccuracy: 0.00000000E+00

  Writing Kohn-Sham eigenvalues.

  State    Occupation    Eigenvalue [Ha]    Eigenvalue [eV]
      1       2.00000        -101.473109        -2761.22378
      2       2.00000        -101.473107        -2761.22374
      3       2.00000        -101.473107        -2761.22373
      4       2.00000        -101.473107        -2761.22373
      5       2.00000        -101.473107        -2761.22373
      6       2.00000        -101.473107        -2761.22373
      7       2.00000        -101.473107        -2761.22373
      8       2.00000        -101.473107        -2761.22373
      9       2.00000        -101.473107        -2761.22373
     10       2.00000        -101.473107        -2761.22373
     11       2.00000        -101.473107        -2761.22373
     12       2.00000        -101.473107        -2761.22373
     13       2.00000        -101.473107        -2761.22373
     14       2.00000        -101.473107        -2761.22373
     15       2.00000        -101.473107        -2761.22373
     16       2.00000        -101.473107        -2761.22373
     17       2.00000        -101.473107        -2761.22373
     18       2.00000        -101.473107        -2761.22373
     19       2.00000        -101.473107        -2761.22373
     20       2.00000        -101.473107        -2761.22373
     21       2.00000        -101.473107        -2761.22373
     22       2.00000        -101.473107        -2761.22373
     23       2.00000        -101.473107        -2761.22373
     24       2.00000        -101.473107        -2761.22373
     25       2.00000        -101.473107        -2761.22373
     26       2.00000        -101.473107        -2761.22373
     27       2.00000        -101.473107        -2761.22373
     28       2.00000        -101.473107        -2761.22373
     29       2.00000        -101.473107        -2761.22373
     30       2.00000        -101.473107        -2761.22373
     31       2.00000        -101.473107        -2761.22373
     32       2.00000        -101.473107        -2761.22373
     33       2.00000        -101.473107        -2761.22373
     34       2.00000        -101.473107        -2761.22373
     35       2.00000        -101.473107        -2761.22373
     36       2.00000        -101.473107        -2761.22373
     37       2.00000        -101.473107        -2761.22373
     38       2.00000        -101.473107        -2761.22373
     39       2.00000        -101.473107        -2761.22373
     40       2.00000        -101.473107        -2761.22373
     41       2.00000        -101.473107        -2761.22373
     42       2.00000        -101.473107        -2761.22373
     43       2.00000        -101.473107        -2761.22373
     44       2.00000        -101.473107        -2761.22373
     45       2.00000        -101.473107        -2761.22373
     46       2.00000        -101.473107        -2761.22373
     47       2.00000        -101.473107        -2761.22373
     48       2.00000        -101.473107        -2761.22373
     49       2.00000        -101.473107        -2761.22373
     50       2.00000        -101.473107        -2761.22373
     51       2.00000        -101.473107        -2761.22373
     52       2.00000        -101.473107        -2761.22373
     53       2.00000        -101.473107        -2761.22373
     54       2.00000        -101.473107        -2761.22373
     55       2.00000        -101.473107        -2761.22373
     56       2.00000        -101.473107        -2761.22373
     57       2.00000        -101.473107        -2761.22373
     58       2.00000        -101.473107        -2761.22373
     59       2.00000        -101.473107        -2761.22373
     60       2.00000        -101.473107        -2761.22373
     61       2.00000        -101.473107        -2761.22373
     62       2.00000        -101.473107        -2761.22373
     63       2.00000        -101.473107        -2761.22373
     64       2.00000        -101.473107        -2761.22373
     65       2.00000         -38.027109        -1034.77027
     66       2.00000         -38.027109        -1034.77027
     67       2.00000         -38.027103        -1034.77012
     68       2.00000         -38.027103        -1034.77012
     69       2.00000         -38.027103        -1034.77012
     70       2.00000         -38.027103        -1034.77012
     71       2.00000         -38.027103        -1034.77012
     72       2.00000         -38.027103        -1034.77012
     73       2.00000         -38.027103        -1034.77012
     74       2.00000         -38.027103        -1034.77012
     75       2.00000         -38.027103        -1034.77012
     76       2.00000         -38.027103        -1034.77012
     77       2.00000         -38.027103        -1034.77012
     78       2.00000         -38.027103        -1034.77012
     79       2.00000         -38.027103        -1034.77012
     80       2.00000         -38.027103        -1034.77012
     81       2.00000         -38.027103        -1034.77012
     82       2.00000         -38.027103        -1034.77012
     83       2.00000         -38.027103        -1034.77012
     84       2.00000         -38.027103        -1034.77012
     85       2.00000         -38.027103        -1034.77012
     86       2.00000         -38.027103        -1034.77012
     87       2.00000         -38.027103        -1034.77012
     88       2.00000         -38.027103        -1034.77012
     89       2.00000         -38.027103        -1034.77012
     90       2.00000         -38.027103        -1034.77012
     91       2.00000         -38.027103        -1034.77012
     92       2.00000         -38.027103        -1034.77012
     93       2.00000         -38.027103        -1034.77012
     94       2.00000         -38.027103        -1034.77012
     95       2.00000         -38.027103        -1034.77012
     96       2.00000         -38.027103        -1034.77012
     97       2.00000         -38.027103        -1034.77012
     98       2.00000         -38.027103        -1034.77012
     99       2.00000         -38.027103        -1034.77012
    100       2.00000         -38.027103        -1034.77012
    101       2.00000         -38.027103        -1034.77012
    102       2.00000         -38.027103        -1034.77012
    103       2.00000         -38.027103        -1034.77012
    104       2.00000         -38.027103        -1034.77012
    105       2.00000         -38.027103        -1034.77012
    106       2.00000         -38.027103        -1034.77012
    107       2.00000         -38.027103        -1034.77012
    108       2.00000         -38.027103        -1034.77012
    109       2.00000         -38.027103        -1034.77012
    110       2.00000         -38.027103        -1034.77012
    111       2.00000         -38.027103        -1034.77012
    112       2.00000         -38.027103        -1034.77012
    113       2.00000         -38.027103        -1034.77012
    114       2.00000         -38.027103        -1034.77012
    115       2.00000         -38.027103        -1034.77012
    116       2.00000         -38.027103        -1034.77012
    117       2.00000         -38.027103        -1034.77012
    118       2.00000         -38.027103        -1034.77012
    119       2.00000         -38.027103        -1034.77012
    120       2.00000         -38.027103        -1034.77012
    121       2.00000         -38.027103        -1034.77012
    122       2.00000         -38.027103        -1034.77012
    123       2.00000         -38.027103        -1034.77012
    124       2.00000         -38.027103        -1034.77012
    125       2.00000         -38.027103        -1034.77012
    126       2.00000         -38.027103        -1034.77012
    127       2.00000         -38.027097        -1034.76996
    128       2.00000         -38.027097        -1034.76996
    129       2.00000          -9.310968         -253.36434
    130       2.00000          -9.310967         -253.36430
    131       2.00000          -9.310967         -253.36430
    132       2.00000          -9.310967         -253.36430
    133       2.00000          -9.310967         -253.36430
    134       2.00000          -9.310967         -253.36430
    135       2.00000          -9.310967         -253.36430
    136       2.00000          -9.310967         -253.36430
    137       2.00000          -9.310967         -253.36430
    138       2.00000          -9.310967         -253.36430
    139       2.00000          -9.310967         -253.36430
    140       2.00000          -9.310967         -253.36430
    141       2.00000          -9.310967         -253.36430
    142       2.00000          -9.310967         -253.36430
    143       2.00000          -9.310967         -253.36430
    144       2.00000          -9.310967         -253.36430
    145       2.00000          -9.310967         -253.36430
    146       2.00000          -9.310967         -253.36430
    147       2.00000          -9.310967         -253.36430
    148       2.00000          -9.310967         -253.36430
    149       2.00000          -9.310967         -253.36430
    150       2.00000          -9.310967         -253.36430
    151       2.00000          -9.310967         -253.36430
    152       2.00000          -9.310967         -253.36430
    153       2.00000          -9.310967         -253.36430
    154       2.00000          -9.310967         -253.36430
    155       2.00000          -9.310967         -253.36430
    156       2.00000          -9.310967         -253.36430
    157       2.00000          -9.310967         -253.36430
    158       2.00000          -9.310967         -253.36430
    159       2.00000          -9.310967         -253.36430
    160       2.00000          -9.310967         -253.36430
    161       2.00000          -9.310967         -253.36430
    162       2.00000          -9.310967         -253.36430
    163       2.00000          -9.310967         -253.36430
    164       2.00000          -9.310967         -253.36430
    165       2.00000          -9.310967         -253.36430
    166       2.00000          -9.310967         -253.36430
    167       2.00000          -9.310967         -253.36430
    168       2.00000          -9.310967         -253.36430
    169       2.00000          -9.310967         -253.36430
    170       2.00000          -9.310967         -253.36430
    171       2.00000          -9.310967         -253.36430
    172       2.00000          -9.310967         -253.36430
    173       2.00000          -9.310967         -253.36430
    174       2.00000          -9.310967         -253.36430
    175       2.00000          -9.310967         -253.36430
    176       2.00000          -9.310967         -253.36430
    177       2.00000          -9.310967         -253.36430
    178       2.00000          -9.310967         -253.36430
    179       2.00000          -9.310967         -253.36430
    180       2.00000          -9.310967         -253.36430
    181       2.00000          -9.310967         -253.36430
    182       2.00000          -9.310967         -253.36430
    183       2.00000          -9.310967         -253.36430
    184       2.00000          -9.310967         -253.36430
    185       2.00000          -9.310967         -253.36430
    186       2.00000          -9.310967         -253.36430
    187       2.00000          -9.310967         -253.36430
    188       2.00000          -9.310967         -253.36430
    189       2.00000          -9.310967         -253.36430
    190       2.00000          -9.310967         -253.36430
    191       2.00000          -9.310967         -253.36430
    192       2.00000          -9.310967         -253.36430
    193       2.00000          -7.065189         -192.25358
    194       2.00000          -7.065189         -192.25358
    195       2.00000          -7.065189         -192.25358
    196       2.00000          -7.065188         -192.25354
    197       2.00000          -7.065188         -192.25354
    198       2.00000          -7.065188         -192.25354
    199       2.00000          -7.065188         -192.25353
    200       2.00000          -7.065188         -192.25353
    201       2.00000          -7.065188         -192.25353
    202       2.00000          -7.065188         -192.25353
    203       2.00000          -7.065188         -192.25353
    204       2.00000          -7.065188         -192.25353
    205       2.00000          -7.065188         -192.25353
    206       2.00000          -7.065188         -192.25353
    207       2.00000          -7.065188         -192.25353
    208       2.00000          -7.065188         -192.25353
    209       2.00000          -7.065188         -192.25353
    210       2.00000          -7.065188         -192.25353
    211       2.00000          -7.065188         -192.25353
    212       2.00000          -7.065188         -192.25353
    213       2.00000          -7.065188         -192.25353
    214       2.00000          -7.065188         -192.25353
    215       2.00000          -7.065188         -192.25353
    216       2.00000          -7.065188         -192.25353
    217       2.00000          -7.065188         -192.25353
    218       2.00000          -7.065188         -192.25353
    219       2.00000          -7.065188         -192.25353
    220       2.00000          -7.065188         -192.25353
    221       2.00000          -7.065188         -192.25353
    222       2.00000          -7.065188         -192.25353
    223       2.00000          -7.065188         -192.25353
    224       2.00000          -7.065188         -192.25353
    225       2.00000          -7.065188         -192.25353
    226       2.00000          -7.065188         -192.25353
    227       2.00000          -7.065188         -192.25353
    228       2.00000          -7.065188         -192.25353
    229       2.00000          -7.065188         -192.25353
    230       2.00000          -7.065188         -192.25353
    231       2.00000          -7.065188         -192.25353
    232       2.00000          -7.065188         -192.25353
    233       2.00000          -7.065188         -192.25353
    234       2.00000          -7.065188         -192.25353
    235       2.00000          -7.065188         -192.25353
    236       2.00000          -7.065188         -192.25353
    237       2.00000          -7.065188         -192.25353
    238       2.00000          -7.065188         -192.25353
    239       2.00000          -7.065188         -192.25353
    240       2.00000          -7.065188         -192.25353
    241       2.00000          -7.065188         -192.25353
    242       2.00000          -7.065188         -192.25353
    243       2.00000          -7.065188         -192.25353
    244       2.00000          -7.065188         -192.25353
    245       2.00000          -7.065188         -192.25353
    246       2.00000          -7.065188         -192.25353
    247       2.00000          -7.065188         -192.25353
    248       2.00000          -7.065188         -192.25353
    249       2.00000          -7.065188         -192.25353
    250       2.00000          -7.065188         -192.25353
    251       2.00000          -7.065188         -192.25353
    252       2.00000          -7.065188         -192.25353
    253       2.00000          -7.065188         -192.25353
    254       2.00000          -7.065188         -192.25353
    255       2.00000          -7.065188         -192.25353
    256       2.00000          -7.065188         -192.25353
    257       2.00000          -7.065188         -192.25353
    258       2.00000          -7.065188         -192.25353
    259       2.00000          -7.065188         -192.25353
    260       2.00000          -7.065188         -192.25353
    261       2.00000          -7.065188         -192.25353
    262       2.00000          -7.065188         -192.25353
    263       2.00000          -7.065188         -192.25353
    264       2.00000          -7.065188         -192.25353
    265       2.00000          -7.065188         -192.25353
    266       2.00000          -7.065188         -192.25353
    267       2.00000          -7.065188         -192.25353
    268       2.00000          -7.065188         -192.25353
    269       2.00000          -7.065188         -192.25353
    270       2.00000          -7.065188         -192.25353
    271       2.00000          -7.065188         -192.25353
    272       2.00000          -7.065188         -192.25353
    273       2.00000          -7.065188         -192.25353
    274       2.00000          -7.065188         -192.25353
    275       2.00000          -7.065188         -192.25353
    276       2.00000          -7.065188         -192.25353
    277       2.00000          -7.065188         -192.25353
    278       2.00000          -7.065188         -192.25353
    279       2.00000          -7.065188         -192.25353
    280       2.00000          -7.065188         -192.25353
    281       2.00000          -7.065188         -192.25353
    282       2.00000          -7.065188         -192.25353
    283       2.00000          -7.065188         -192.25353
    284       2.00000          -7.065188         -192.25353
    285       2.00000          -7.065188         -192.25353
    286       2.00000          -7.065188         -192.25353
    287       2.00000          -7.065188         -192.25353
    288       2.00000          -7.065188         -192.25353
    289       2.00000          -7.065188         -192.25353
    290       2.00000          -7.065188         -192.25353
    291       2.00000          -7.065188         -192.25353
    292       2.00000          -7.065188         -192.25353
    293       2.00000          -7.065188         -192.25353
    294       2.00000          -7.065188         -192.25353
    295       2.00000          -7.065188         -192.25353
    296       2.00000          -7.065188         -192.25353
    297       2.00000          -7.065188         -192.25353
    298       2.00000          -7.065188         -192.25353
    299       2.00000          -7.065188         -192.25353
    300       2.00000          -7.065188         -192.25353
    301       2.00000          -7.065188         -192.25353
    302       2.00000          -7.065188         -192.25353
    303       2.00000          -7.065188         -192.25353
    304       2.00000          -7.065188         -192.25353
    305       2.00000          -7.065188         -192.25353
    306       2.00000          -7.065188         -192.25353
    307       2.00000          -7.065188         -192.25353
    308       2.00000          -7.065188         -192.25353
    309       2.00000          -7.065188         -192.25353
    310       2.00000          -7.065188         -192.25353
    311       2.00000          -7.065188         -192.25353
    312       2.00000          -7.065188         -192.25353
    313       2.00000          -7.065188         -192.25353
    314       2.00000          -7.065188         -192.25353
    315       2.00000          -7.065188         -192.25353
    316       2.00000          -7.065188         -192.25353
    317       2.00000          -7.065188         -192.25353
    318       2.00000          -7.065188         -192.25353
    319       2.00000          -7.065188         -192.25353
    320       2.00000          -7.065188         -192.25353
    321       2.00000          -7.065188         -192.25353
    322       2.00000          -7.065188         -192.25353
    323       2.00000          -7.065188         -192.25353
    324       2.00000          -7.065188         -192.25353
    325       2.00000          -7.065188         -192.25353
    326       2.00000          -7.065188         -192.25353
    327       2.00000          -7.065188         -192.25353
    328       2.00000          -7.065188         -192.25353
    329       2.00000          -7.065188         -192.25353
    330       2.00000          -7.065188         -192.25353
    331       2.00000          -7.065188         -192.25353
    332       2.00000          -7.065188         -192.25353
    333       2.00000          -7.065188         -192.25353
    334       2.00000          -7.065188         -192.25353
    335       2.00000          -7.065188         -192.25353
    336       2.00000          -7.065188         -192.25353
    337       2.00000          -7.065188         -192.25353
    338       2.00000          -7.065188         -192.25353
    339       2.00000          -7.065188         -192.25353
    340       2.00000          -7.065188         -192.25353
    341       2.00000          -7.065188         -192.25353
    342       2.00000          -7.065188         -192.25353
    343       2.00000          -7.065188         -192.25353
    344       2.00000          -7.065188         -192.25353
    345       2.00000          -7.065188         -192.25353
    346       2.00000          -7.065188         -192.25353
    347       2.00000          -7.065188         -192.25353
    348       2.00000          -7.065188         -192.25353
    349       2.00000          -7.065188         -192.25353
    350       2.00000          -7.065188         -192.25353
    351       2.00000          -7.065188         -192.25353
    352       2.00000          -7.065188         -192.25353
    353       2.00000          -7.065188         -192.25353
    354       2.00000          -7.065188         -192.25353
    355       2.00000          -7.065188         -192.25353
    356       2.00000          -7.065188         -192.25353
    357       2.00000          -7.065188         -192.25353
    358       2.00000          -7.065188         -192.25353
    359       2.00000          -7.065188         -192.25353
    360       2.00000          -7.065188         -192.25353
    361       2.00000          -7.065188         -192.25353
    362       2.00000          -7.065188         -192.25353
    363       2.00000          -7.065188         -192.25353
    364       2.00000          -7.065188         -192.25353
    365       2.00000          -7.065188         -192.25353
    366       2.00000          -7.065188         -192.25353
    367       2.00000          -7.065188         -192.25353
    368       2.00000          -7.065188         -192.25353
    369       2.00000          -7.065188         -192.25353
    370       2.00000          -7.065187         -192.25353
    371       2.00000          -7.065187         -192.25353
    372       2.00000          -7.065187         -192.25353
    373       2.00000          -7.065187         -192.25353
    374       2.00000          -7.065187         -192.25353
    375       2.00000          -7.065187         -192.25353
    376       2.00000          -7.065187         -192.25353
    377       2.00000          -7.065187         -192.25353
    378       2.00000          -7.065187         -192.25353
    379       2.00000          -7.065187         -192.25353
    380       2.00000          -7.065187         -192.25353
    381       2.00000          -7.065187         -192.25353
    382       2.00000          -7.065187         -192.25353
    383       2.00000          -7.065187         -192.25353
    384       2.00000          -7.065187         -192.25353
    385       2.00000          -2.075384          -56.47407
    386       2.00000          -2.075374          -56.47379
    387       2.00000          -2.075372          -56.47373
    388       2.00000          -2.075370          -56.47370
    389       2.00000          -2.075370          -56.47370
    390       2.00000          -2.075370          -56.47370
    391       2.00000          -2.075370          -56.47370
    392       2.00000          -2.075370          -56.47370
    393       2.00000          -2.075369          -56.47367
    394       2.00000          -2.075367          -56.47361
    395       2.00000          -2.075367          -56.47361
    396       2.00000          -2.075366          -56.47358
    397       2.00000          -2.075366          -56.47358
    398       2.00000          -2.075366          -56.47357
    399       2.00000          -2.075365          -56.47356
    400       2.00000          -2.075362          -56.47346
    401       2.00000          -2.075360          -56.47341
    402       2.00000          -2.075357          -56.47334
    403       2.00000          -2.075357          -56.47334
    404       2.00000          -2.075357          -56.47334
    405       2.00000          -2.075357          -56.47334
    406       2.00000          -2.075357          -56.47334
    407       2.00000          -2.075357          -56.47334
    408       2.00000          -2.075357          -56.47334
    409       2.00000          -2.075357          -56.47334
    410       2.00000          -2.075357          -56.47334
    411       2.00000          -2.075357          -56.47334
    412       2.00000          -2.075357          -56.47334
    413       2.00000          -2.075357          -56.47334
    414       2.00000          -2.075357          -56.47333
    415       2.00000          -2.075356          -56.47331
    416       2.00000          -2.075355          -56.47328
    417       2.00000          -2.075355          -56.47327
    418       2.00000          -2.075353          -56.47323
    419       2.00000          -2.075353          -56.47323
    420       2.00000          -2.075353          -56.47323
    421       2.00000          -2.075353          -56.47323
    422       2.00000          -2.075353          -56.47323
    423       2.00000          -2.075353          -56.47323
    424       2.00000          -2.075353          -56.47323
    425       2.00000          -2.075353          -56.47323
    426       2.00000          -2.075353          -56.47323
    427       2.00000          -2.075353          -56.47323
    428       2.00000          -2.075353          -56.47323
    429       2.00000          -2.075353          -56.47323
    430       2.00000          -2.075353          -56.47323
    431       2.00000          -2.075353          -56.47323
    432       2.00000          -2.075353          -56.47323
    433       2.00000          -2.075353          -56.47323
    434       2.00000          -2.075353          -56.47323
    435       2.00000          -2.075353          -56.47323
    436       2.00000          -2.075353          -56.47323
    437       2.00000          -2.075353          -56.47323
    438       2.00000          -2.075351          -56.47316
    439       2.00000          -2.075350          -56.47316
    440       2.00000          -2.075349          -56.47312
    441       2.00000          -2.075349          -56.47312
    442       2.00000          -2.075349          -56.47311
    443       2.00000          -2.075349          -56.47311
    444       2.00000          -2.075349          -56.47311
    445       2.00000          -2.075349          -56.47311
    446       2.00000          -2.075349          -56.47311
    447       2.00000          -2.075345          -56.47302
    448       2.00000          -2.075343          -56.47297
    449       2.00000          -1.044908          -28.43339
    450       2.00000          -1.044908          -28.43339
    451       2.00000          -1.044908          -28.43339
    452       2.00000          -1.044908          -28.43339
    453       2.00000          -1.044574          -28.42429
    454       2.00000          -1.044569          -28.42418
    455       2.00000          -1.044569          -28.42417
    456       2.00000          -1.044569          -28.42417
    457       2.00000          -1.044569          -28.42416
    458       2.00000          -1.044568          -28.42415
    459       2.00000          -1.044568          -28.42414
    460       2.00000          -1.044568          -28.42414
    461       2.00000          -1.044568          -28.42414
    462       2.00000          -1.044568          -28.42414
    463       2.00000          -1.044568          -28.42414
    464       2.00000          -1.044568          -28.42414
    465       2.00000          -1.044568          -28.42414
    466       2.00000          -1.044568          -28.42414
    467       2.00000          -1.044568          -28.42414
    468       2.00000          -1.044568          -28.42414
    469       2.00000          -1.044568          -28.42414
    470       2.00000          -1.044568          -28.42414
    471       2.00000          -1.044568          -28.42414
    472       2.00000          -1.044567          -28.42413
    473       2.00000          -1.044567          -28.42412
    474       2.00000          -1.044567          -28.42411
    475       2.00000          -1.044567          -28.42411
    476       2.00000          -1.044564          -28.42403
    477       2.00000          -1.044547          -28.42358
    478       2.00000          -1.044547          -28.42357
    479       2.00000          -1.044547          -28.42357
    480       2.00000          -1.044547          -28.42356
    481       2.00000          -1.044547          -28.42356
    482       2.00000          -1.044547          -28.42356
    483       2.00000          -1.044547          -28.42356
    484       2.00000          -1.044546          -28.42356
    485       2.00000          -1.044546          -28.42355
    486       2.00000          -1.044546          -28.42354
    487       2.00000          -1.044546          -28.42354
    488       2.00000          -1.044546          -28.42353
    489       2.00000          -1.044477          -28.42167
    490       2.00000          -1.044477          -28.42167
    491       2.00000          -1.044477          -28.42167
    492       2.00000          -1.044331          -28.41771
    493       2.00000          -1.044330          -28.41768
    494       2.00000          -1.044330          -28.41767
    495       2.00000          -1.044330          -28.41767
    496       2.00000          -1.044330          -28.41767
    497       2.00000          -1.044330          -28.41767
    498       2.00000          -1.044330          -28.41766
    499       2.00000          -1.044329          -28.41763
    500       2.00000          -1.044257          -28.41567
    501       2.00000          -1.044257          -28.41567
    502       2.00000          -1.044256          -28.41566
    503       2.00000          -1.044256          -28.41566
    504       2.00000          -1.044256          -28.41565
    505       2.00000          -1.044256          -28.41565
    506       2.00000          -1.044256          -28.41565
    507       2.00000          -1.044256          -28.41565
    508       2.00000          -1.044256          -28.41564
    509       2.00000          -1.044255          -28.41564
    510       2.00000          -1.044255          -28.41563
    511       2.00000          -1.044255          -28.41563
    512       2.00000          -1.044223          -28.41476
    513       2.00000          -1.044223          -28.41476
    514       2.00000          -1.044223          -28.41476
    515       2.00000          -1.044223          -28.41476
    516       2.00000          -1.044223          -28.41476
    517       2.00000          -1.044223          -28.41475
    518       2.00000          -1.044143          -28.41257
    519       2.00000          -1.044143          -28.41257
    520       2.00000          -1.044143          -28.41257
    521       2.00000          -1.044143          -28.41257
    522       2.00000          -1.044143          -28.41256
    523       2.00000          -1.044142          -28.41256
    524       2.00000          -1.044072          -28.41064
    525       2.00000          -1.044071          -28.41063
    526       2.00000          -1.044071          -28.41062
    527       2.00000          -1.044071          -28.41062
    528       2.00000          -1.044071          -28.41062
    529       2.00000          -1.044071          -28.41062
    530       2.00000          -1.044071          -28.41062
    531       2.00000          -1.044071          -28.41062
    532       2.00000          -1.044071          -28.41062
    533       2.00000          -1.044071          -28.41062
    534       2.00000          -1.044071          -28.41062
    535       2.00000          -1.044071          -28.41061
    536       2.00000          -1.044054          -28.41015
    537       2.00000          -1.044053          -28.41012
    538       2.00000          -1.044052          -28.41010
    539       2.00000          -1.044052          -28.41010
    540       2.00000          -1.044052          -28.41009
    541       2.00000          -1.044051          -28.41009
    542       2.00000          -1.044051          -28.41007
    543       2.00000          -1.044051          -28.41007
    544       2.00000          -1.044051          -28.41007
    545       2.00000          -1.044051          -28.41007
    546       2.00000          -1.044051          -28.41007
    547       2.00000          -1.044051          -28.41007
    548       2.00000          -1.044051          -28.41007
    549       2.00000          -1.044051          -28.41007
    550       2.00000          -1.044051          -28.41007
    551       2.00000          -1.044051          -28.41007
    552       2.00000          -1.044051          -28.41006
    553       2.00000          -1.044051          -28.41006
    554       2.00000          -1.044050          -28.41005
    555       2.00000          -1.044050          -28.41004
    556       2.00000          -1.044050          -28.41004
    557       2.00000          -1.044050          -28.41004
    558       2.00000          -1.044049          -28.41001
    559       2.00000          -1.044048          -28.40999
    560       2.00000          -1.044037          -28.40970
    561       2.00000          -1.044037          -28.40969
    562       2.00000          -1.044037          -28.40969
    563       2.00000          -1.044037          -28.40969
    564       2.00000          -1.044037          -28.40969
    565       2.00000          -1.044037          -28.40969
    566       2.00000          -1.043929          -28.40675
    567       2.00000          -1.043928          -28.40672
    568       2.00000          -1.043927          -28.40671
    569       2.00000          -1.043927          -28.40670
    570       2.00000          -1.043927          -28.40669
    571       2.00000          -1.043926          -28.40667
    572       2.00000          -1.043926          -28.40667
    573       2.00000          -1.043926          -28.40667
    574       2.00000          -1.043926          -28.40667
    575       2.00000          -1.043926          -28.40667
    576       2.00000          -1.043926          -28.40667
    577       2.00000          -1.043926          -28.40667
    578       2.00000          -1.043926          -28.40667
    579       2.00000          -1.043926          -28.40667
    580       2.00000          -1.043926          -28.40667
    581       2.00000          -1.043926          -28.40667
    582       2.00000          -1.043926          -28.40667
    583       2.00000          -1.043926          -28.40667
    584       2.00000          -1.043926          -28.40666
    585       2.00000          -1.043925          -28.40665
    586       2.00000          -1.043925          -28.40663
    587       2.00000          -1.043924          -28.40663
    588       2.00000          -1.043924          -28.40662
    589       2.00000          -1.043923          -28.40659
    590       2.00000          -1.043889          -28.40566
    591       2.00000          -1.043889          -28.40566
    592       2.00000          -1.043889          -28.40566
    593       2.00000          -1.043889          -28.40566
    594       2.00000          -1.043888          -28.40565
    595       2.00000          -1.043888          -28.40565
    596       2.00000          -1.043888          -28.40565
    597       2.00000          -1.043888          -28.40564
    598       2.00000          -1.043888          -28.40563
    599       2.00000          -1.043888          -28.40563
    600       2.00000          -1.043888          -28.40563
    601       2.00000          -1.043888          -28.40563
    602       2.00000          -1.043816          -28.40369
    603       2.00000          -1.043816          -28.40368
    604       2.00000          -1.043816          -28.40368
    605       2.00000          -1.043816          -28.40367
    606       2.00000          -1.043815          -28.40366
    607       2.00000          -1.043815          -28.40366
    608       2.00000          -1.043815          -28.40366
    609       2.00000          -1.043815          -28.40366
    610       2.00000          -1.043815          -28.40366
    611       2.00000          -1.043815          -28.40365
    612       2.00000          -1.043815          -28.40365
    613       2.00000          -1.043815          -28.40365
    614       2.00000          -1.043815          -28.40364
    615       2.00000          -1.043815          -28.40364
    616       2.00000          -1.043814          -28.40364
    617       2.00000          -1.043814          -28.40364
    618       2.00000          -1.043814          -28.40363
    619       2.00000          -1.043814          -28.40363
    620       2.00000          -1.043814          -28.40363
    621       2.00000          -1.043814          -28.40362
    622       2.00000          -1.043780          -28.40270
    623       2.00000          -1.043779          -28.40267
    624       2.00000          -1.043779          -28.40267
    625       2.00000          -1.043778          -28.40264
    626       2.00000          -1.043778          -28.40264
    627       2.00000          -1.043778          -28.40264
    628       2.00000          -1.043778          -28.40264
    629       2.00000          -1.043778          -28.40264
    630       2.00000          -1.043778          -28.40264
    631       2.00000          -1.043778          -28.40264
    632       2.00000          -1.043778          -28.40264
    633       2.00000          -1.043778          -28.40264
    634       2.00000          -1.043778          -28.40264
    635       2.00000          -1.043777          -28.40261
    636       2.00000          -1.043776          -28.40260
    637       2.00000          -1.043775          -28.40257
    638       2.00000          -1.043741          -28.40164
    639       2.00000          -1.043741          -28.40164
    640       2.00000          -1.043741          -28.40164
    641       2.00000          -0.807796          -21.98126
    642       2.00000          -0.802892          -21.84780
    643       2.00000          -0.802885          -21.84762
    644       2.00000          -0.802885          -21.84762
    645       2.00000          -0.802885          -21.84762
    646       2.00000          -0.802885          -21.84762
    647       2.00000          -0.802885          -21.84762
    648       2.00000          -0.802885          -21.84761
    649       2.00000          -0.802879          -21.84744
    650       2.00000          -0.801777          -21.81747
    651       2.00000          -0.801772          -21.81734
    652       2.00000          -0.801772          -21.81733
    653       2.00000          -0.801772          -21.81733
    654       2.00000          -0.801772          -21.81733
    655       2.00000          -0.801767          -21.81720
    656       2.00000          -0.798372          -21.72480
    657       2.00000          -0.798365          -21.72461
    658       2.00000          -0.798365          -21.72461
    659       2.00000          -0.798365          -21.72461
    660       2.00000          -0.798365          -21.72460
    661       2.00000          -0.798365          -21.72460
    662       2.00000          -0.798365          -21.72460
    663       2.00000          -0.798365          -21.72460
    664       2.00000          -0.798364          -21.72460
    665       2.00000          -0.798364          -21.72460
    666       2.00000          -0.798364          -21.72460
    667       2.00000          -0.798358          -21.72442
    668       2.00000          -0.797756          -21.70805
    669       2.00000          -0.797756          -21.70805
    670       2.00000          -0.797756          -21.70805
    671       2.00000          -0.797756          -21.70805
    672       2.00000          -0.797213          -21.69326
    673       2.00000          -0.797204          -21.69303
    674       2.00000          -0.797204          -21.69302
    675       2.00000          -0.797204          -21.69302
    676       2.00000          -0.797204          -21.69302
    677       2.00000          -0.797204          -21.69302
    678       2.00000          -0.797204          -21.69302
    679       2.00000          -0.797204          -21.69302
    680       2.00000          -0.797204          -21.69302
    681       2.00000          -0.797204          -21.69302
    682       2.00000          -0.797204          -21.69302
    683       2.00000          -0.797204          -21.69302
    684       2.00000          -0.797204          -21.69302
    685       2.00000          -0.797204          -21.69302
    686       2.00000          -0.797204          -21.69302
    687       2.00000          -0.797204          -21.69302
    688       2.00000          -0.797204          -21.69302
    689       2.00000          -0.797204          -21.69302
    690       2.00000          -0.797204          -21.69302
    691       2.00000          -0.797204          -21.69302
    692       2.00000          -0.797204          -21.69302
    693       2.00000          -0.797204          -21.69301
    694       2.00000          -0.797204          -21.69301
    695       2.00000          -0.797195          -21.69279
    696       2.00000          -0.796616          -21.67703
    697       2.00000          -0.796616          -21.67703
    698       2.00000          -0.796616          -21.67703
    699       2.00000          -0.796053          -21.66169
    700       2.00000          -0.796053          -21.66169
    701       2.00000          -0.796053          -21.66169
    702       2.00000          -0.796052          -21.66169
    703       2.00000          -0.796052          -21.66169
    704       2.00000          -0.796052          -21.66169
    705       2.00000          -0.399878          -10.88124
    706       2.00000          -0.399878          -10.88124
    707       2.00000          -0.399878          -10.88124
    708       2.00000          -0.399878          -10.88124
    709       2.00000          -0.391845          -10.66264
    710       2.00000          -0.391845          -10.66264
    711       2.00000          -0.391845          -10.66264
    712       2.00000          -0.388759          -10.57867
    713       2.00000          -0.388756          -10.57859
    714       2.00000          -0.388754          -10.57854
    715       2.00000          -0.388740          -10.57815
    716       2.00000          -0.388740          -10.57815
    717       2.00000          -0.388740          -10.57814
    718       2.00000          -0.388740          -10.57814
    719       2.00000          -0.388740          -10.57814
    720       2.00000          -0.388740          -10.57814
    721       2.00000          -0.388740          -10.57814
    722       2.00000          -0.388740          -10.57814
    723       2.00000          -0.388740          -10.57814
    724       2.00000          -0.388740          -10.57814
    725       2.00000          -0.388740          -10.57814
    726       2.00000          -0.388740          -10.57814
    727       2.00000          -0.388739          -10.57814
    728       2.00000          -0.388739          -10.57814
    729       2.00000          -0.388739          -10.57814
    730       2.00000          -0.388739          -10.57814
    731       2.00000          -0.388739          -10.57813
    732       2.00000          -0.388739          -10.57813
    733       2.00000          -0.388725          -10.57775
    734       2.00000          -0.388724          -10.57771
    735       2.00000          -0.388721          -10.57763
    736       2.00000          -0.384988          -10.47607
    737       2.00000          -0.384987          -10.47604
    738       2.00000          -0.384983          -10.47592
    739       2.00000          -0.384979          -10.47580
    740       2.00000          -0.384978          -10.47580
    741       2.00000          -0.384978          -10.47579
    742       2.00000          -0.384978          -10.47579
    743       2.00000          -0.384978          -10.47579
    744       2.00000          -0.384978          -10.47579
    745       2.00000          -0.384974          -10.47567
    746       2.00000          -0.384969          -10.47555
    747       2.00000          -0.384969          -10.47553
    748       2.00000          -0.376810          -10.25353
    749       2.00000          -0.376810          -10.25353
    750       2.00000          -0.376795          -10.25313
    751       2.00000          -0.376795          -10.25312
    752       2.00000          -0.376795          -10.25312
    753       2.00000          -0.376795          -10.25312
    754       2.00000          -0.376795          -10.25312
    755       2.00000          -0.376795          -10.25312
    756       2.00000          -0.376795          -10.25311
    757       2.00000          -0.376795          -10.25311
    758       2.00000          -0.376780          -10.25271
    759       2.00000          -0.376780          -10.25271
    760       2.00000          -0.373782          -10.17114
    761       2.00000          -0.373780          -10.17107
    762       2.00000          -0.373775          -10.17094
    763       2.00000          -0.373775          -10.17093
    764       2.00000          -0.373775          -10.17093
    765       2.00000          -0.373775          -10.17093
    766       2.00000          -0.373770          -10.17080
    767       2.00000          -0.373768          -10.17073
    768       2.00000          -0.372932          -10.14799
    769       2.00000          -0.372928          -10.14788
    770       2.00000          -0.372928          -10.14787
    771       2.00000          -0.372928          -10.14787
    772       2.00000          -0.372927          -10.14787
    773       2.00000          -0.372923          -10.14775
    774       2.00000          -0.364408           -9.91606
    775       2.00000          -0.364408           -9.91605
    776       2.00000          -0.364391           -9.91558
    777       2.00000          -0.364390           -9.91557
    778       2.00000          -0.364390           -9.91556
    779       2.00000          -0.364390           -9.91556
    780       2.00000          -0.364390           -9.91556
    781       2.00000          -0.364390           -9.91556
    782       2.00000          -0.364390           -9.91556
    783       2.00000          -0.364390           -9.91556
    784       2.00000          -0.364374           -9.91512
    785       2.00000          -0.364374           -9.91512
    786       2.00000          -0.363703           -9.89685
    787       2.00000          -0.363700           -9.89678
    788       2.00000          -0.363693           -9.89659
    789       2.00000          -0.363673           -9.89605
    790       2.00000          -0.363673           -9.89605
    791       2.00000          -0.363673           -9.89605
    792       2.00000          -0.363673           -9.89605
    793       2.00000          -0.363673           -9.89605
    794       2.00000          -0.363673           -9.89605
    795       2.00000          -0.363673           -9.89605
    796       2.00000          -0.363673           -9.89605
    797       2.00000          -0.363673           -9.89605
    798       2.00000          -0.363673           -9.89605
    799       2.00000          -0.363673           -9.89605
    800       2.00000          -0.363673           -9.89605
    801       2.00000          -0.363673           -9.89605
    802       2.00000          -0.363673           -9.89605
    803       2.00000          -0.363673           -9.89605
    804       2.00000          -0.363673           -9.89605
    805       2.00000          -0.363673           -9.89604
    806       2.00000          -0.363673           -9.89604
    807       2.00000          -0.363654           -9.89554
    808       2.00000          -0.363645           -9.89530
    809       2.00000          -0.363643           -9.89523
    810       2.00000          -0.363180           -9.88263
    811       2.00000          -0.363176           -9.88252
    812       2.00000          -0.363171           -9.88237
    813       2.00000          -0.363170           -9.88236
    814       2.00000          -0.363164           -9.88221
    815       2.00000          -0.363160           -9.88209
    816       2.00000          -0.358676           -9.76008
    817       2.00000          -0.358676           -9.76008
    818       2.00000          -0.358676           -9.76008
    819       2.00000          -0.358676           -9.76008
    820       2.00000          -0.358676           -9.76008
    821       2.00000          -0.358676           -9.76008
    822       2.00000          -0.353800           -9.62738
    823       2.00000          -0.353799           -9.62737
    824       2.00000          -0.353798           -9.62733
    825       2.00000          -0.353790           -9.62711
    826       2.00000          -0.353790           -9.62711
    827       2.00000          -0.353789           -9.62710
    828       2.00000          -0.353789           -9.62710
    829       2.00000          -0.353789           -9.62710
    830       2.00000          -0.353789           -9.62710
    831       2.00000          -0.353789           -9.62710
    832       2.00000          -0.353789           -9.62710
    833       2.00000          -0.353789           -9.62710
    834       2.00000          -0.353789           -9.62710
    835       2.00000          -0.353789           -9.62710
    836       2.00000          -0.353789           -9.62710
    837       2.00000          -0.353789           -9.62710
    838       2.00000          -0.353789           -9.62710
    839       2.00000          -0.353789           -9.62710
    840       2.00000          -0.353789           -9.62710
    841       2.00000          -0.353789           -9.62709
    842       2.00000          -0.353789           -9.62708
    843       2.00000          -0.353781           -9.62686
    844       2.00000          -0.353780           -9.62683
    845       2.00000          -0.353779           -9.62681
    846       2.00000          -0.350028           -9.52474
[...]
   1017       0.00000           0.071998            1.95917
   1018       0.00000           0.071998            1.95917
   1019       0.00000           0.071999            1.95918
   1020       0.00000           0.072000            1.95921
   1021       0.00000           0.072003            1.95930
   1022       0.00000           0.072045            1.96043
   1023       0.00000           0.072046            1.96048
   1024       0.00000           0.072850            1.98236
   1025       0.00000           0.072864            1.98273
   1026       0.00000           0.072865            1.98275
   1027       0.00000           0.072865            1.98277
   1028       0.00000           0.072868            1.98284
   1029       0.00000           0.072882            1.98323
   1030       0.00000           0.076292            2.07600
   1031       0.00000           0.076308            2.07644
   1032       0.00000           0.076322            2.07683
   1033       0.00000           0.076378            2.07834
   1034       0.00000           0.076380            2.07842
   1035       0.00000           0.076383            2.07849
   1036       0.00000           0.076384            2.07850
   1037       0.00000           0.076385            2.07855
   1038       0.00000           0.076388            2.07862
   1039       0.00000           0.076389            2.07865
   1040       0.00000           0.076391            2.07869
   1041       0.00000           0.076391            2.07869
   1042       0.00000           0.076391            2.07870
   1043       0.00000           0.076391            2.07870
   1044       0.00000           0.076392            2.07874
   1045       0.00000           0.076393            2.07877
   1046       0.00000           0.076396            2.07884
   1047       0.00000           0.076398            2.07888
   1048       0.00000           0.076398            2.07890
   1049       0.00000           0.076401            2.07898
   1050       0.00000           0.076404            2.07905
   1051       0.00000           0.076462            2.08065
   1052       0.00000           0.076474            2.08098
   1053       0.00000           0.076494            2.08150
   1054       0.00000           0.079108            2.15263
   1055       0.00000           0.079108            2.15265
   1056       0.00000           0.079110            2.15268
   1057       0.00000           0.079111            2.15271
   1058       0.00000           0.086740            2.36031
   1059       0.00000           0.086744            2.36042
   1060       0.00000           0.086779            2.36136
   1061       0.00000           0.086779            2.36137
   1062       0.00000           0.086779            2.36137
   1063       0.00000           0.086779            2.36137
   1064       0.00000           0.086815            2.36236
   1065       0.00000           0.086819            2.36246
   1066       0.00000           0.098826            2.68919
   1067       0.00000           0.098838            2.68953
   1068       0.00000           0.098856            2.69000
   1069       0.00000           0.098856            2.69000
   1070       0.00000           0.098873            2.69048
   1071       0.00000           0.098886            2.69083
   1072       0.00000           0.115339            3.13852
   1073       0.00000           0.115341            3.13860
   1074       0.00000           0.115343            3.13865
   1075       0.00000           0.115344            3.13867
   1076       0.00000           0.115344            3.13867
   1077       0.00000           0.115344            3.13867
   1078       0.00000           0.115344            3.13867
   1079       0.00000           0.115344            3.13867
   1080       0.00000           0.115754            3.14982
   1081       0.00000           0.115755            3.14986
   1082       0.00000           0.115758            3.14994
   1083       0.00000           0.117439            3.19567
   1084       0.00000           0.117444            3.19580
   1085       0.00000           0.117449            3.19595
   1086       0.00000           0.117450            3.19597
   1087       0.00000           0.117456            3.19613
   1088       0.00000           0.117460            3.19624


  Self-consistency cycle converged.

  End self-consistency iteration #    15  :  max(cpu_time)   wall_clock_time(cpu1)
  Time for this iteration                 :     2018.450 s        2025.944 s
  Charge density & force component update :     1739.400 s        1743.537 s
  Density mixing                          :        0.370 s           0.373 s
  Hartree multipole update                :        0.370 s           0.362 s
  Hartree multipole summation             :      175.780 s         175.909 s
  Integration                             :       96.120 s          96.188 s
  Solution of K.-S. eqns.                 :        7.770 s           6.897 s
  Total energy evaluation                 :        0.000 s           0.004 s
------------------------------------------------------------
 
  Energy and forces in a compact form:
  | Total energy uncorrected      :         -0.108838624569379E+07 eV
  | Total energy corrected        :         -0.108838624569379E+07 eV
  | Free energy                   :         -0.108838624569379E+07 eV
  Total atomic forces (unitary forces cleaned) [eV/Ang]:
  |   1         -0.749213934834772E-03         -0.354147380478952E-03         -0.353840683812774E-03
  |   2         -0.245115898164401E-05          0.133142153835347E-02          0.133150362198762E-02
  |   3          0.755325023376170E-03         -0.355439259694159E-03         -0.355513039226443E-03
  |   4         -0.165676035312202E-04         -0.247066446447929E-03         -0.246544282615468E-03
  |   5         -0.488615670848723E-05          0.326718002894546E-02          0.133735046634225E-02
  |   6          0.340948368879548E-05          0.132527049492949E-02          0.345277903584969E-02
  |   7          0.397310639912694E-05         -0.160250746906368E-03         -0.746286533285660E-03
  |   8         -0.422001282077197E-05         -0.740970146680689E-03         -0.162582907671895E-03
  |   9          0.165994983271543E-04          0.402913484739396E-03          0.400504237972832E-03
  |  10         -0.185040031668200E-03          0.791882045521816E-04         -0.349937711975361E-03
  |  11          0.174732830631066E-04         -0.133498481277358E-03         -0.134785030619959E-03
  |  12          0.180970221246487E-03         -0.348921814542109E-03          0.799341164059543E-04
  |  13         -0.162626785731130E-03          0.108659188020364E-05         -0.847673281793609E-04
  |  14         -0.384667953382711E-03          0.772498364917712E-04          0.188758102985705E-04
  |  15          0.385052691291996E-03          0.179758191956319E-04          0.772391271184100E-04
  |  16          0.162881666354932E-03         -0.854837060854313E-04          0.946667080232049E-06
  |  17         -0.462000618956656E-05          0.133744115510968E-02          0.326708558111374E-02
  |  18          0.241270336472292E-05          0.345258378586720E-02          0.132493926857797E-02
  |  19          0.436493635862218E-05         -0.746367863473642E-03         -0.159948877259751E-03
  |  20         -0.255828584264331E-05         -0.162366844905482E-03         -0.741840884722167E-03
  |  21         -0.239378368444452E-04          0.133415792502501E-02          0.133457351300937E-02
  |  22         -0.767484158303306E-03         -0.354728263925046E-03         -0.354339857514869E-03
  |  23         -0.186898920970509E-04         -0.249407149409493E-03         -0.249784897484363E-03
  |  24          0.760644009205309E-03         -0.354818492504103E-03         -0.355155929453919E-03
  |  25         -0.386504745166045E-03          0.769484946670889E-04          0.183242500424966E-04
  |  26         -0.164779866481010E-03          0.124465296420627E-05         -0.851739727786374E-04
  |  27          0.163890223126352E-03         -0.851589806124536E-04         -0.160980433012610E-06
  |  28          0.386323979268169E-03          0.195069325731973E-04          0.776161545218207E-04
  |  29         -0.179334537940206E-03          0.761910554290148E-04         -0.345295592897963E-03
  |  30          0.162136473668255E-04          0.400116068779363E-03          0.401471124867369E-03
  |  31          0.178377724572628E-03         -0.348244868752727E-03          0.771606231430798E-04
  |  32          0.167287593716605E-04         -0.133119698958690E-03         -0.132746537328008E-03
  |  33          0.173530612326381E-04          0.400210372134078E-03          0.402589272901712E-03
  |  34         -0.183690776604982E-03         -0.349806660684788E-03          0.792387353136681E-04
  |  35          0.150862347008049E-04         -0.134403710180399E-03         -0.132379597949754E-03
  |  36          0.179538004527063E-03          0.796462969178048E-04         -0.349300706279634E-03
  |  37         -0.386183813164835E-03          0.183759491316356E-04          0.768607768562114E-04
  |  38         -0.164643295563801E-03         -0.849586652289269E-04          0.120596410712630E-05
  |  39          0.163642012391474E-03         -0.980008677130345E-08         -0.853468115524094E-04
  |  40          0.386332847206163E-03          0.776888079233953E-04          0.193001790119627E-04
  |  41         -0.127176481247039E-03         -0.182196332312781E-04         -0.183800955325833E-04
  |  42         -0.923621250158655E-05          0.802838522115755E-04          0.804152603135505E-04
  |  43          0.115998747925844E-03         -0.179236047193457E-04         -0.175275688562396E-04
  |  44         -0.116597505114128E-04         -0.273722155990037E-04         -0.259800737656315E-04
  |  45          0.272024916974960E-05          0.197115586378397E-03          0.380897251073233E-04
  |  46         -0.288215982218702E-05          0.410029222192709E-04          0.199411342258487E-03
  |  47         -0.184013603117267E-05         -0.228895451110369E-03         -0.250686129072394E-04
  |  48          0.389659063101718E-05         -0.213727632112352E-04         -0.227292156738068E-03
  |  49         -0.162259890303648E-03         -0.847153132874362E-04          0.925842001697468E-06
  |  50         -0.384763114428478E-03          0.190758616345904E-04          0.773279907340882E-04
  |  51          0.384744921705084E-03          0.771838623836787E-04          0.178949960664909E-04
  |  52          0.163113011624037E-03          0.987300761509008E-06         -0.855505875229718E-04
  |  53         -0.178441661187314E-03         -0.345574482801549E-03          0.758482501286775E-04
  |  54          0.154454853472697E-04          0.401239435928035E-03          0.399851002394843E-03
  |  55          0.177010875298859E-03          0.777383890705112E-04         -0.347772394110303E-03
  |  56          0.182663253552424E-04         -0.133326595787233E-03         -0.132845201003318E-03
  |  57          0.244948745188210E-05          0.378241576552645E-04          0.197388795394204E-03
  |  58         -0.187318030090653E-05          0.199189117452331E-03          0.414425386526499E-04
  |  59         -0.219637519004232E-05         -0.223595780060254E-04         -0.228674742765485E-03
  |  60          0.213300480855868E-05         -0.227707114756961E-03         -0.230221458938578E-04
  |  61         -0.906804001233378E-05          0.778321661390268E-04          0.776301815322180E-04
  |  62         -0.112759839272233E-03         -0.173285822201028E-04         -0.173514688834532E-04
  |  63         -0.111085279862186E-04         -0.253213862313666E-04         -0.230764836439017E-04
  |  64          0.105182962867182E-03         -0.190173404522453E-04         -0.185102800837576E-04
  |  65          0.146011457793663E-03         -0.167389630962751E-01         -0.167390261761819E-01
  |  66          0.672324670171121E-04          0.242331083812159E-02          0.242357724449692E-02
  |  67          0.207260757545305E-03          0.529636131923614E-03          0.529504756253178E-03
  |  68         -0.581746866038871E-04          0.239014208138359E-02          0.238975193283017E-02
  |  69          0.153964957075018E-02         -0.589222553866601E-03          0.863143431940473E-03
  |  70          0.206966524769870E-03          0.140580804701205E-03          0.312867338563092E-03
  |  71         -0.206984304758281E-03          0.331275075712647E-03          0.122296871254483E-03
  |  72         -0.153418716745575E-02          0.874369218216685E-03         -0.601479576494478E-03
  |  73          0.286365031331591E-03         -0.546234159187531E-04          0.230983336196815E-03
  |  74          0.589895085726813E-05         -0.770303047450833E-04         -0.785968665329237E-04
  |  75         -0.284686605636245E-03          0.230111832581971E-03         -0.548767808838524E-04
  |  76          0.392593983800853E-05         -0.773350712562894E-04         -0.771517071160099E-04
  |  77          0.153891811929313E-02         -0.592401462088365E-03          0.861257994315305E-03
  |  78         -0.154284060755644E-02          0.871873695323556E-03         -0.611452845272645E-03
  |  79         -0.211226182767582E-03          0.335778262123479E-03          0.127005785062711E-03
  |  80          0.210839249547390E-03          0.140482361677931E-03          0.320850230000417E-03
  |  81          0.154008274868939E-02          0.862540778912220E-03         -0.588824734164945E-03
  |  82          0.206732247506368E-03          0.313860435536580E-03          0.141410840106215E-03
  |  83         -0.208207900887938E-03          0.123243478234579E-03          0.329799149469744E-03
  |  84         -0.153448101813456E-02         -0.601993445972750E-03          0.873274603005176E-03
  |  85          0.265153347705764E-03          0.699321212258674E-04          0.700841161087122E-04
  |  86         -0.230042481610151E-05          0.554095795395008E-04          0.557266622966300E-04
  |  87         -0.271171316303964E-03          0.692341698976166E-04          0.690545556140597E-04
  |  88         -0.186973519811382E-05         -0.194291200682269E-03         -0.194063360777301E-03
  |  89          0.603361722141728E-04         -0.144703856458402E-03          0.662076804184841E-04
  |  90         -0.632123202820428E-04          0.455548928202020E-04         -0.137158519975509E-03
  |  91         -0.754839915832160E-04          0.725252886937894E-04         -0.445218517826053E-05
  |  92          0.802142079699572E-04         -0.202804954969472E-04          0.798898371190120E-04
  |  93         -0.181262580169488E-03         -0.677133088830943E-03         -0.665937144145471E-03
  |  94          0.263046280069621E-04          0.483580172258500E-03         -0.193530565502610E-03
  |  95         -0.187157009050579E-03          0.158963022841561E-03          0.150935964863306E-03
  |  96         -0.139086074873498E-04         -0.189894222220728E-03          0.481549578141086E-03
  |  97          0.286975608336796E-03          0.230930230143426E-03         -0.547737302532781E-04
  |  98          0.478651725606005E-05         -0.782926475078753E-04         -0.772085056463478E-04
  |  99         -0.285395334757466E-03         -0.547665080200525E-04          0.230249737979537E-03
  | 100          0.445320624018469E-05         -0.770311951714718E-04         -0.776948292430520E-04
  | 101          0.602389055793418E-04          0.657829816706506E-04         -0.145324667798639E-03
  | 102         -0.638480756660129E-04         -0.137399830800672E-03          0.461458377743452E-04
  | 103         -0.761547973559679E-04         -0.334938023991631E-05          0.719200846591845E-04
  | 104          0.797354363520756E-04          0.795125872023791E-04         -0.214988201615469E-04
  | 105          0.796834141633409E-04         -0.484182064174315E-04         -0.483472582604683E-04
  | 106         -0.353118600582727E-05         -0.474424423079026E-05         -0.575435583016736E-05
  | 107          0.120059350583410E-03          0.213962445790832E-03          0.213462447373893E-03
  | 108          0.168698505803290E-03         -0.546212987373317E-05         -0.496805321365314E-05
  | 109          0.664805147426025E-04          0.594882871538830E-04         -0.142427103819419E-03
  | 110          0.777202344233266E-04          0.800040290836248E-04         -0.162096665134514E-04
  | 111         -0.840407110519627E-04          0.572188785541165E-05          0.699604760014242E-04
  | 112         -0.636961440416802E-04         -0.136660400028795E-03          0.372414996096223E-04
  | 113          0.153872580870399E-02          0.860832413958798E-03         -0.592735015484989E-03
  | 114         -0.154345300141813E-02         -0.611020048684328E-03          0.871308576473096E-03
  | 115         -0.211004952919616E-03          0.127702970091115E-03          0.337235315956352E-03
  | 116          0.211119450359313E-03          0.319823088893160E-03          0.140676138778227E-03
  | 117         -0.173677871216132E-03         -0.666265544593473E-03         -0.676903353105689E-03
  | 118          0.433953972211634E-04         -0.193562522481022E-03          0.483941251975057E-03
  | 119         -0.212930404614357E-03          0.151214261604622E-03          0.158434175193430E-03
  | 120         -0.253268424192601E-04          0.481649123739315E-03         -0.189909419763722E-03
  | 121          0.659950910635890E-04         -0.141380641662707E-03          0.592894880132904E-04
  | 122          0.786734210810708E-04         -0.174365404785707E-04          0.781000142238917E-04
  | 123         -0.819582130430499E-04          0.685743213192107E-04          0.676359532515781E-05
  | 124         -0.634076596709003E-04          0.376824832600355E-04         -0.135773033864652E-03
  | 125          0.272424156233250E-03          0.699325447761181E-04          0.698065944637667E-04
  | 126         -0.321739930972375E-05         -0.194392807131043E-03         -0.193861031559572E-03
  | 127         -0.276890375765451E-03          0.691586151492619E-04          0.692054729188417E-04
  | 128         -0.409973898965637E-05          0.554152855055508E-04          0.559531316128166E-04
 

------------------------------------------------------------
          Leaving FHI-aims.
          Date     :  20091203, Time     :  041238.618

          Computational steps:
          | Number of self-consistency cycles          :           15

          Detailed time accounting                     :  max(cpu_time)   wall_clock_time(cpu1)
          | Total time                                 :     7567.210 s        7611.398 s
          | Preparation time                           :        0.840 s           0.837 s
          | Grid partitioning                          :       51.490 s          51.513 s
          | Preloading free-atom quantities on grid    :       61.210 s          61.255 s
          | Free-atom superposition energy             :       52.180 s          52.169 s
          | Total time for integrations                :     1621.180 s        1624.830 s
          | Total time for solution of K.-S. equations :      119.930 s         112.580 s
          | Total time for density & force components  :     4405.840 s        4432.886 s
          | Total time for mixing                      :        3.620 s           3.777 s
          | Total time for Hartree multipole update    :        5.570 s           5.566 s
          | Total time for Hartree multipole sum       :     1249.520 s        1251.750 s
          | Total time for total energy evaluation     :        0.010 s           0.011 s
          | Total time for scaled ZORA corrections     :        0.000 s           0.000 s

          Have a nice day.
------------------------------------------------------------
