# epsilon and Z* of atoms 1 5
   2.48411834   0.00000000   0.00000000   0.00000000   2.48411834   0.00000000   0.00000000   0.00000000   2.48411834
   1.10255853   0.00000000   0.00000000   0.00000000   1.10255853   0.00000000   0.00000000   0.00000000   1.10255853
  -1.10255853   0.00000000   0.00000000   0.00000000  -1.10255853   0.00000000   0.00000000   0.00000000  -1.10255853
