64
2

1
  0.0100000000000000   0.0000000000000000   0.0000000000000000
  -0.0188667900   -0.0000000000   -0.0000000000
   0.0029822000   -0.0000000000   -0.0000000000
  -0.0000268700   -0.0000000000   -0.0000000000
   0.0001179600   -0.0000000000   -0.0000000000
  -0.0000268700   -0.0000000000   -0.0000000000
   0.0001179600   -0.0000000000   -0.0000000000
  -0.0001461700   -0.0000000000   -0.0000000000
   0.0001501600   -0.0000000000   -0.0000000000
  -0.0005584400   -0.0000023600   -0.0000023600
   0.0003967200    0.0000004200    0.0000004200
  -0.0005584400    0.0000023600   -0.0000023600
   0.0003967200   -0.0000004200    0.0000004200
  -0.0005584400   -0.0000023600    0.0000023600
   0.0003967200    0.0000004200   -0.0000004200
  -0.0005584400    0.0000023600    0.0000023600
   0.0003967200   -0.0000004200   -0.0000004200
   0.0004993000   -0.0000000000    0.0019433600
   0.0004995200   -0.0000000000   -0.0019300700
  -0.0000047700   -0.0000000000   -0.0000198400
  -0.0000032200   -0.0000000000    0.0000191300
   0.0004993000   -0.0000000000   -0.0019433600
   0.0004995200   -0.0000000000    0.0019300700
  -0.0000047700   -0.0000000000    0.0000198400
  -0.0000032200   -0.0000000000   -0.0000191300
   0.0004993000    0.0019433600   -0.0000000000
   0.0004995200   -0.0019300700   -0.0000000000
   0.0004993000   -0.0019433600   -0.0000000000
   0.0004995200    0.0019300700   -0.0000000000
  -0.0000047700   -0.0000198400   -0.0000000000
  -0.0000032200    0.0000191300   -0.0000000000
  -0.0000047700    0.0000198400   -0.0000000000
  -0.0000032200   -0.0000191300   -0.0000000000
  -0.0000680100   -0.0004275700   -0.0004275700
  -0.0000717000    0.0004278700    0.0004278700
  -0.0000680100    0.0004275700   -0.0004275700
  -0.0000717000   -0.0004278700    0.0004278700
  -0.0000680100   -0.0004275700    0.0004275700
  -0.0000717000    0.0004278700   -0.0004278700
  -0.0000680100    0.0004275700    0.0004275700
  -0.0000717000   -0.0004278700   -0.0004278700
   0.0050392500   -0.0000000000   -0.0000000000
   0.0046327400   -0.0000000000   -0.0000000000
   0.0000556400   -0.0000000000   -0.0000000000
   0.0000505600   -0.0000000000   -0.0000000000
   0.0000556400   -0.0000000000   -0.0000000000
   0.0000505600   -0.0000000000   -0.0000000000
   0.0000079700   -0.0000000000   -0.0000000000
   0.0000014800   -0.0000000000   -0.0000000000
   0.0017260100   -0.0000107100   -0.0000000000
  -0.0009494800   -0.0000006300   -0.0000000000
   0.0017260100    0.0000107100   -0.0000000000
  -0.0009494800    0.0000006300   -0.0000000000
   0.0002055000    0.0000021400   -0.0000000000
  -0.0002202900    0.0000008500   -0.0000000000
   0.0002055000   -0.0000021400   -0.0000000000
  -0.0002202900   -0.0000008500   -0.0000000000
   0.0017260100   -0.0000000000   -0.0000107100
  -0.0009494800   -0.0000000000   -0.0000006300
   0.0002055000   -0.0000000000    0.0000021400
  -0.0002202900   -0.0000000000    0.0000008500
   0.0017260100   -0.0000000000    0.0000107100
  -0.0009494800   -0.0000000000    0.0000006300
   0.0002055000   -0.0000000000   -0.0000021400
  -0.0002202900   -0.0000000000   -0.0000008500

33
  0.0100000000000000   0.0000000000000000   0.0000000000000000
  -0.0000699600   -0.0004280700   -0.0004280700
  -0.0000675200    0.0004291100    0.0004291100
  -0.0000699600    0.0004280700   -0.0004280700
  -0.0000675200   -0.0004291100    0.0004291100
  -0.0000699600   -0.0004280700    0.0004280700
  -0.0000675200    0.0004291100   -0.0004291100
  -0.0000699600    0.0004280700    0.0004280700
  -0.0000675200   -0.0004291100   -0.0004291100
   0.0046320900   -0.0000000000    0.0000000000
   0.0050346700   -0.0000000000    0.0000000000
   0.0000517800   -0.0000000000    0.0000000000
   0.0000535000   -0.0000000000    0.0000000000
   0.0000517800   -0.0000000000    0.0000000000
   0.0000535000   -0.0000000000    0.0000000000
   0.0000009900   -0.0000000000    0.0000000000
   0.0000019700   -0.0000000000    0.0000000000
   0.0017250800    0.0000075600    0.0000000000
  -0.0009525900    0.0000006000    0.0000000000
   0.0017250800   -0.0000075600    0.0000000000
  -0.0009525900   -0.0000006000    0.0000000000
   0.0002082800    0.0000002700    0.0000000000
  -0.0002245300    0.0000003500    0.0000000000
   0.0002082800   -0.0000002700    0.0000000000
  -0.0002245300   -0.0000003500    0.0000000000
   0.0017250800   -0.0000000000    0.0000075600
  -0.0009525900   -0.0000000000    0.0000006000
   0.0002082800   -0.0000000000    0.0000002700
  -0.0002245300   -0.0000000000    0.0000003500
   0.0017250800   -0.0000000000   -0.0000075600
  -0.0009525900   -0.0000000000   -0.0000006000
   0.0002082800   -0.0000000000   -0.0000002700
  -0.0002245300   -0.0000000000   -0.0000003500
  -0.0237973600   -0.0000000000    0.0000000000
   0.0013098500   -0.0000000000    0.0000000000
  -0.0005187500   -0.0000000000    0.0000000000
   0.0006516000   -0.0000000000    0.0000000000
  -0.0005187500   -0.0000000000    0.0000000000
   0.0006516000   -0.0000000000    0.0000000000
  -0.0001713300   -0.0000000000    0.0000000000
   0.0001779700   -0.0000000000    0.0000000000
  -0.0008053300    0.0000034100    0.0000034100
   0.0005212200   -0.0000011700   -0.0000011700
  -0.0008053300   -0.0000034100    0.0000034100
   0.0005212200    0.0000011700   -0.0000011700
  -0.0008053300    0.0000034100   -0.0000034100
   0.0005212200   -0.0000011700    0.0000011700
  -0.0008053300   -0.0000034100   -0.0000034100
   0.0005212200    0.0000011700    0.0000011700
   0.0013851100   -0.0000000000    0.0020619200
   0.0013896000   -0.0000000000   -0.0020800400
  -0.0000118300   -0.0000000000    0.0001919800
  -0.0000138200   -0.0000000000   -0.0001934700
   0.0013851100   -0.0000000000   -0.0020619200
   0.0013896000   -0.0000000000    0.0020800400
  -0.0000118300   -0.0000000000   -0.0001919800
  -0.0000138200   -0.0000000000    0.0001934700
   0.0013851100    0.0020619200    0.0000000000
   0.0013896000   -0.0020800400    0.0000000000
   0.0013851100   -0.0020619200    0.0000000000
   0.0013896000    0.0020800400    0.0000000000
  -0.0000118300    0.0001919800    0.0000000000
  -0.0000138200   -0.0001934700    0.0000000000
  -0.0000118300   -0.0001919800    0.0000000000
  -0.0000138200    0.0001934700    0.0000000000
