# epsilon and Z* of atoms 1 3
   4.42038879    0.00000000    0.00000000    0.00000000    4.42038879    0.00000000    0.00000000    0.00000000    4.77663396
   4.09429092    0.47310041    0.00000000    0.47310041    4.09429092    0.00000000    0.00000000    0.00000000    4.48212636
  -2.04714546    0.71774951    0.00000000    0.71774951   -2.04714546    0.00000000    0.00000000    0.00000000   -2.24106318
