72
3

1
  0.0070326606024151   0.0000000000000000   0.0071092675326815
  -0.1445219000   -0.0143616700   -0.2195052600
   0.0137802900    0.0009428900   -0.0029398000
  -0.0081696400    0.0009446900   -0.0029400700
   0.0063126200    0.0024366500   -0.0019299000
  -0.0174353600    0.0086075700    0.0429948600
   0.0052289100   -0.0003730500    0.0014424300
  -0.0047439400   -0.0003729800    0.0014347300
   0.0027904600   -0.0000437100    0.0009296400
  -0.0172606900    0.0085966200    0.0426107600
   0.0052066300   -0.0003716300    0.0013971700
  -0.0047403600   -0.0003708900    0.0014058400
   0.0027847800   -0.0000475200    0.0008984100
   0.0119880300    0.0138809000    0.0091873400
  -0.0050166100    0.0031893900   -0.0076061000
   0.0196687500   -0.0215598500    0.0016441200
   0.0026344100    0.0044809900   -0.0152319400
   0.0011965400    0.0010460000    0.0062586000
   0.0011928300   -0.0010299100    0.0062406100
   0.0011855600   -0.0010387300    0.0062531500
   0.0011823300    0.0010231300    0.0062328900
   0.0026225000    0.0044767700   -0.0151805200
   0.0195995700   -0.0214104700    0.0015883500
  -0.0050805100    0.0032067800   -0.0076154200
   0.0119276000    0.0137345700    0.0092384500
   0.0035758900   -0.0043630400   -0.0007965100
  -0.0014681000    0.0002095000    0.0010392000
   0.0333894500   -0.0266105400    0.0502213400
  -0.0042527700    0.0017357200    0.0030600400
   0.0018891800   -0.0010096200   -0.0023349300
  -0.0006289100    0.0000460000   -0.0014473400
   0.0020533600   -0.0010193000   -0.0073528400
  -0.0007132100   -0.0004524800   -0.0023293400
   0.0048840200   -0.0033096100    0.0032974200
  -0.0013933100    0.0001356700    0.0003752500
   0.0070906900   -0.0000718500    0.0227148700
  -0.0052873600    0.0004221300   -0.0005624400
  -0.0064622000    0.0015671200   -0.0006154000
   0.0059009000    0.0010165400    0.0225043900
  -0.0025565900    0.0013022800    0.0003371200
   0.0037351100   -0.0021565300    0.0032540700
  -0.0018939700    0.0007250800   -0.0023362700
   0.0008811400    0.0001522500   -0.0073466400
  -0.0018012000    0.0012200500   -0.0014488100
   0.0007099100    0.0001739100   -0.0023306900
  -0.0053928500    0.0028782900    0.0031130800
   0.0305269700   -0.0233852400    0.0470790100
  -0.0026282500    0.0013755200    0.0010789300
   0.0024196400   -0.0032071300   -0.0007589900
   0.0279144000    0.0223153700    0.0123055200
  -0.0058773000    0.0011864500    0.0062330100
   0.0007424500    0.0027418100    0.0062591100
  -0.0061900000   -0.0054336200    0.0003648000
  -0.0029789400   -0.0056070900   -0.0067545100
   0.0003830800   -0.0005384100   -0.0021869600
   0.0000056700    0.0041217600   -0.0047424200
  -0.0001741500    0.0001694400    0.0000588000
   0.0053988500    0.0027920100   -0.0018952900
  -0.0056158500   -0.0008544000   -0.0045187200
  -0.0003043700   -0.0018815200   -0.0019725600
  -0.0024327300   -0.0020882200   -0.0008912300
  -0.0049791600   -0.0042304900    0.0003686800
   0.0019065100    0.0039024600    0.0062371400
  -0.0047324600    0.0023984300    0.0062638000
   0.0284347200    0.0226164000    0.0125057700
  -0.0012822000   -0.0009423600   -0.0008492200
   0.0008533200   -0.0007128600   -0.0019121700
  -0.0044449200    0.0003174300   -0.0044765000
   0.0065653500    0.0039429200   -0.0018459900
   0.0009852700    0.0013255800    0.0000152100
   0.0011664200    0.0052894100   -0.0047953000
   0.0015611400    0.0006247600   -0.0022406100
  -0.0018154200   -0.0044165600   -0.0067532200

25
  0.0070326606024151   0.0000000000000000   0.0071092675326815
   0.0015932100   -0.0002119700    0.0005950200
  -0.0016498600    0.0004016900    0.0006702600
   0.0315790200   -0.0243724600    0.0466334700
  -0.0034779800   -0.0012021600    0.0017693500
   0.0057017400    0.0035034600    0.0019136400
  -0.0023660600    0.0011118500    0.0007597500
   0.0059797300    0.0009100100    0.0229881300
  -0.0072168900   -0.0053176500    0.0007423300
   0.0012968100    0.0001374000   -0.0023411300
  -0.0012144500    0.0006335700   -0.0014614600
   0.0014750000   -0.0004427800   -0.0073515000
  -0.0013043000   -0.0004198400   -0.0023438600
   0.0284991900   -0.0229478300    0.0122387700
  -0.0053056200   -0.0033153400    0.0061946600
   0.0013356100   -0.0017833400    0.0062243600
  -0.0055908300    0.0048361900    0.0003553700
  -0.0006694200    0.0033043600   -0.0084671400
  -0.0008817200   -0.0002808300   -0.0003682700
  -0.0009924300   -0.0010400200   -0.0031873400
  -0.0002676900   -0.0000751100    0.0007022800
   0.0042481300   -0.0016322600   -0.0001667900
  -0.0031751000   -0.0031224400   -0.0062858200
   0.0018611400    0.0012664500   -0.0034968800
  -0.0011847800    0.0008411400   -0.0015181500
  -0.0917354900    0.0655070500   -0.1065965300
   0.0031671000   -0.0011037600   -0.0018838900
  -0.0001835900   -0.0011057800   -0.0018850000
   0.0014077900   -0.0009529800   -0.0008075500
  -0.0016847600    0.0007822900    0.0094850500
   0.0025541100   -0.0006444400    0.0012705700
  -0.0002505900   -0.0008693700    0.0014907100
   0.0015649700   -0.0013104000    0.0000608500
  -0.0013604000    0.0004698800    0.0091289900
   0.0027230100   -0.0012730800    0.0010946900
   0.0003845700   -0.0010527900    0.0008770000
   0.0009556700   -0.0007020800    0.0006782900
   0.0012709100   -0.0011557400   -0.0015802300
  -0.0015201500    0.0020757400   -0.0016611400
   0.0011175800    0.0020792000   -0.0016677100
   0.0133703700   -0.0159635000   -0.0052804400
   0.0009727900   -0.0010611700    0.0013826600
  -0.0018513500    0.0007473200    0.0005497600
   0.0001965500    0.0014705700    0.0012674900
  -0.0020259000    0.0017192400    0.0001213700
   0.0000399400   -0.0001263200    0.0004795100
  -0.0012818600    0.0016199100    0.0011191000
  -0.0006846900    0.0009047500    0.0004078600
   0.0004475400   -0.0007535400    0.0025979800
  -0.0033317500    0.0018200600   -0.0009577700
   0.0023025700    0.0020324900   -0.0004850400
  -0.0060060300   -0.0072162400    0.0017098800
   0.0012002600   -0.0003601800    0.0006140500
  -0.0024870000   -0.0105205100    0.0052396100
   0.0001447800   -0.0006867500   -0.0004239700
   0.0002070400    0.0072105900    0.0025507700
   0.0012473800   -0.0001118900   -0.0015242000
  -0.0010056800   -0.0006636700    0.0020589900
  -0.0001408900   -0.0004329200    0.0007245900
  -0.0010033800   -0.0007662500    0.0020570200
  -0.0001398800   -0.0004444400    0.0007243000
   0.0011615800    0.0004482100   -0.0050083700
   0.0144192400    0.0073980100    0.0081426700
  -0.0009574000   -0.0008509900   -0.0005853400
   0.0005362200   -0.0006489800    0.0008909000
   0.0135915600   -0.0004380600    0.0093562000
   0.0001499800    0.0012179600   -0.0039664900
   0.0017741300    0.0013193400   -0.0003269000
   0.0002882100   -0.0006955900   -0.0018011300
   0.0005717300    0.0007703900    0.0020608900
   0.0005670600    0.0006594200    0.0020516500
   0.0005208900    0.0004446300    0.0007251300
   0.0005228100    0.0004322700    0.0007241100

25
 -0.0070326606024151   0.0000000000000000  -0.0071092675326815
  -0.0016148100    0.0002034900   -0.0006037700
   0.0016622300   -0.0003992700   -0.0006726300
  -0.0331835100    0.0264708100   -0.0498279400
   0.0035023600    0.0012159100   -0.0017700700
  -0.0057054200   -0.0035130900   -0.0018831900
   0.0023673700   -0.0011103900   -0.0007284000
  -0.0061653200   -0.0008803000   -0.0230706400
   0.0071971800    0.0052983300   -0.0007146600
  -0.0013017600   -0.0001346700    0.0023214500
   0.0012158900   -0.0006329600    0.0014323700
  -0.0014620100    0.0004241600    0.0073467900
   0.0013030000    0.0004156800    0.0023194500
  -0.0278498100    0.0219835000   -0.0125748500
   0.0053039700    0.0033288300   -0.0063042100
  -0.0013152600    0.0018027700   -0.0062747100
   0.0055798900   -0.0048275700   -0.0003783500
   0.0006819000   -0.0032772800    0.0084466600
   0.0008676600    0.0002694300    0.0004066600
   0.0010053900    0.0010440900    0.0032148900
   0.0002659600    0.0000748700   -0.0007034800
  -0.0042731600    0.0016582800    0.0001680400
   0.0031921800    0.0031441800    0.0063602100
  -0.0018564600   -0.0012679600    0.0035219600
   0.0011837600   -0.0008430900    0.0015497700
   0.0941354500   -0.0678689400    0.1100640200
  -0.0020125100   -0.0000497200    0.0018424700
   0.0013412100   -0.0000515400    0.0018405000
  -0.0002519000   -0.0002053800    0.0007687200
   0.0028363900   -0.0019471200   -0.0094457500
  -0.0013627400   -0.0005360100   -0.0012705500
   0.0014292600   -0.0003131800   -0.0014933600
  -0.0003917500    0.0001370200   -0.0000650400
   0.0025563800   -0.0016549900   -0.0092067900
  -0.0015895700    0.0001268100   -0.0010553300
   0.0007730300   -0.0001012700   -0.0008294600
   0.0001988700   -0.0004549000   -0.0006368200
  -0.0024409600    0.0023227100    0.0015373800
   0.0003725000   -0.0009151600    0.0016249800
  -0.0022736900   -0.0009121500    0.0016178800
  -0.0146177200    0.0172769700    0.0053934400
  -0.0021462900    0.0022287800   -0.0013848300
   0.0006725100    0.0004332900   -0.0005549600
  -0.0013771700   -0.0002870600   -0.0012654400
   0.0008569700   -0.0005499300   -0.0001332300
  -0.0012047500    0.0012888000   -0.0004339900
   0.0001366800   -0.0004771500   -0.0010784000
  -0.0004740900    0.0002510100   -0.0003611100
  -0.0015895300    0.0018970900   -0.0025248000
   0.0021660800   -0.0029959300    0.0009886400
  -0.0035035700   -0.0032351500    0.0004897700
   0.0048863200    0.0060873300   -0.0016823000
  -0.0023770100   -0.0008138500   -0.0006156800
   0.0012967800    0.0092890100   -0.0051858100
  -0.0012845600   -0.0004545100    0.0004702000
  -0.0014052700   -0.0083679500   -0.0025366400
  -0.0024098000   -0.0010470300    0.0015745900
  -0.0001518700   -0.0004990500   -0.0021062000
  -0.0010177700   -0.0007256700   -0.0007702000
  -0.0001501500   -0.0003818600   -0.0021082000
  -0.0010168500   -0.0007113200   -0.0007703000
  -0.0000220800    0.0007288600    0.0050382300
  -0.0135203600   -0.0063520200   -0.0082784800
   0.0021365500    0.0020318900    0.0005870200
   0.0006401700    0.0018281100   -0.0008940200
  -0.0122200600    0.0015561800   -0.0091707900
   0.0010946900   -0.0000256900    0.0039734400
  -0.0006317000   -0.0001750300    0.0003701600
   0.0008729200    0.0018613200    0.0018531400
   0.0005881000    0.0003855800   -0.0021042300
   0.0005834200    0.0004947600   -0.0021131800
   0.0006338500    0.0007118800   -0.0007695900
   0.0006343300    0.0007244200   -0.0007704900
