48   
5    

1    
  0.0100000000000000   0.0000000000000000   0.0000000000000000
  -0.1922552000   -0.0114793400    0.0000000000
   0.0204114400    0.0011787800    0.0000000000
  -0.0129209600    0.0011774900    0.0000000000
   0.0100602000    0.0034178000    0.0000000000
  -0.0448419000    0.0223887600    0.0000000000
   0.0126231800   -0.0009861800    0.0000000000
  -0.0112604100   -0.0009875000    0.0000000000
   0.0063180400    0.0001582800    0.0000000000
   0.0109197400    0.0133212300    0.0154496700
   0.0109349700   -0.0132212100   -0.0044426500
   0.0108825400   -0.0133019500    0.0045438500
   0.0108981500    0.0132007800   -0.0153998100
   0.0109197400    0.0133212300   -0.0154496700
   0.0109349700   -0.0132212100    0.0044426500
   0.0108825400   -0.0133019500   -0.0045438500
   0.0108981500    0.0132007800    0.0153998100
   0.0373148400    0.0288703100    0.0000000000
  -0.0059336500    0.0039587600    0.0000000000
   0.0037164900    0.0065229200    0.0000000000
  -0.0064859500   -0.0053215900    0.0000000000
   0.0061810400   -0.0004559700    0.0000000000
  -0.0033971700    0.0014363300    0.0000000000
   0.0026006800    0.0060499700    0.0000000000
   0.0000101800    0.0007625400    0.0000000000
  -0.0098021400   -0.0086532800    0.0000000000
   0.0003327700    0.0031477500    0.0000000000
  -0.0093356300    0.0006707300    0.0000000000
   0.0324482100    0.0236520500    0.0000000000
  -0.0033416400   -0.0026008600    0.0000000000
  -0.0007657600    0.0027102400    0.0000000000
  -0.0067123000   -0.0018989200    0.0000000000
   0.0027982800   -0.0038256300    0.0000000000
   0.0042952000   -0.0031392200   -0.0022672600
  -0.0052701300    0.0031335300    0.0002197200
   0.0254792900   -0.0150942800    0.0189429700
  -0.0099022300    0.0041509800    0.0020894200
   0.0042952000   -0.0031392200    0.0022672600
  -0.0052701300    0.0031335300   -0.0002197200
   0.0254792900   -0.0150942800   -0.0189429700
  -0.0099022300    0.0041509800   -0.0020894200
  -0.0065513700    0.0007754800   -0.0021158400
   0.0286947300   -0.0180678700   -0.0183272800
  -0.0019149800   -0.0002117700   -0.0002176800
   0.0076527800   -0.0064924300    0.0022570800
  -0.0065513700    0.0007754800    0.0021158400
   0.0286947300   -0.0180678700    0.0183272800
  -0.0019149800   -0.0002117700    0.0002176800
   0.0076527800   -0.0064924300   -0.0022570800

1    
  0.0000000000000000   0.0000000000000000   0.0100000000000000
   0.0000000000    0.0000000000   -0.2823754900
   0.0000000000    0.0000000000   -0.0001856500
   0.0000000000    0.0000000000   -0.0001856500
   0.0000000000    0.0000000000   -0.0002507500
   0.0000000000    0.0000000000    0.1088757700
   0.0000000000    0.0000000000    0.0000355300
   0.0000000000    0.0000000000    0.0000355300
   0.0000000000    0.0000000000    0.0001053400
   0.0045123400    0.0045123400    0.0000343000
  -0.0154554300    0.0154554300    0.0001002200
   0.0154554300   -0.0154554300    0.0001002200
  -0.0045123400   -0.0045123400    0.0000343000
  -0.0044731500   -0.0044731500    0.0001302600
   0.0153948900   -0.0153948900    0.0000649400
  -0.0153948900    0.0153948900    0.0000649400
   0.0044731500    0.0044731500    0.0001302600
   0.0015339700    0.0015339700    0.0146887900
   0.0016886300    0.0016794200    0.0063356500
   0.0016794200    0.0016886300    0.0063356500
   0.0016638400    0.0016638400   -0.0007252000
   0.0016542100    0.0016542100   -0.0086244700
   0.0016678300    0.0016709700   -0.0070010000
   0.0016709700    0.0016678300   -0.0070010000
   0.0016872300    0.0016872300    0.0000650000
  -0.0016638400   -0.0016638400   -0.0007252000
  -0.0016794200   -0.0016886300    0.0063356500
  -0.0016886300   -0.0016794200    0.0063356500
  -0.0015339700   -0.0015339700    0.0146887900
  -0.0016872300   -0.0016872300    0.0000650000
  -0.0016709700   -0.0016678300   -0.0070010000
  -0.0016678300   -0.0016709700   -0.0070010000
  -0.0016542100   -0.0016542100   -0.0086244700
  -0.0024819900    0.0012326200    0.0001228400
  -0.0020188000    0.0020188000   -0.0000231200
   0.0151294300   -0.0151294300    0.0421452400
  -0.0012326200    0.0024819900    0.0001228400
  -0.0008819900    0.0021275000    0.0001122200
  -0.0013409000    0.0013409000   -0.0000245100
  -0.0170464700    0.0170464700    0.0400018200
  -0.0021275000    0.0008819900    0.0001122200
   0.0012326200   -0.0024819900    0.0001228400
  -0.0151294300    0.0151294300    0.0421452400
   0.0020188000   -0.0020188000   -0.0000231200
   0.0024819900   -0.0012326200    0.0001228400
   0.0021275000   -0.0008819900    0.0001122200
   0.0170464700   -0.0170464700    0.0400018200
   0.0013409000   -0.0013409000   -0.0000245100
   0.0008819900   -0.0021275000    0.0001122200

17   
  0.0100000000000000   0.0000000000000000   0.0000000000000000
   0.0341663700    0.0252750700    0.0000000000
  -0.0076322800    0.0048444600    0.0000000000
   0.0019986000    0.0023311200    0.0000000000
  -0.0081462200   -0.0069904200    0.0000000000
   0.0044542600   -0.0021377000    0.0000000000
  -0.0050494200    0.0043820500    0.0000000000
   0.0008937600   -0.0002200200    0.0000000000
  -0.0016617100   -0.0009172200    0.0000000000
   0.0271677900    0.0168139500    0.0164603400
  -0.0082202700    0.0048023900    0.0004453200
   0.0059788800   -0.0024592600   -0.0007979900
  -0.0035986100   -0.0014539300   -0.0003416100
   0.0271677900    0.0168139500   -0.0164603400
  -0.0082202700    0.0048023900   -0.0004453200
   0.0059788800   -0.0024592600    0.0007979900
  -0.0035986100   -0.0014539300    0.0003416100
  -0.1211486800   -0.0838031800    0.0000000000
   0.0055184500    0.0024577300    0.0000000000
   0.0004691500    0.0024502700    0.0000000000
   0.0030254700    0.0023254800    0.0000000000
  -0.0036746700   -0.0014125100    0.0000000000
   0.0069110800    0.0026789700    0.0000000000
   0.0004332900    0.0026613300    0.0000000000
   0.0033436300    0.0027569300    0.0000000000
   0.0176281000    0.0214376800    0.0000000000
   0.0008162200   -0.0038102900    0.0000000000
  -0.0031780700   -0.0038253700    0.0000000000
   0.0010914200    0.0008797600    0.0000000000
  -0.0022670800   -0.0015619200    0.0000000000
  -0.0008350300   -0.0032290300    0.0000000000
  -0.0042074500   -0.0032425100    0.0000000000
   0.0011688100    0.0014135300    0.0000000000
  -0.0050640300    0.0008447400   -0.0006243500
   0.0010955200    0.0011017000    0.0013278100
  -0.0050587800    0.0068269100   -0.0037280100
   0.0010942600   -0.0001626100   -0.0000643100
  -0.0050640300    0.0008447400    0.0006243500
   0.0010955200    0.0011017000   -0.0013278100
  -0.0050587800    0.0068269100    0.0037280100
   0.0010942600   -0.0001626100    0.0000643100
   0.0109266200   -0.0068608700    0.0077710600
   0.0108226900   -0.0008789500   -0.0088140900
   0.0013907700    0.0001653500    0.0016289000
   0.0014061800   -0.0011115300   -0.0000428300
   0.0109266200   -0.0068608700   -0.0077710600
   0.0108226900   -0.0008789500    0.0088140900
   0.0013907700    0.0001653500   -0.0016289000
   0.0014061800   -0.0011115300    0.0000428300

17   
 -0.0100000000000000   0.0000000000000000   0.0000000000000000
  -0.0355946900   -0.0272481900    0.0000000000
   0.0076322400   -0.0048240800    0.0000000000
  -0.0020499200   -0.0022994000    0.0000000000
   0.0081420200    0.0069822300    0.0000000000
  -0.0045218300    0.0021418400    0.0000000000
   0.0050576700   -0.0043770100    0.0000000000
  -0.0009406600    0.0002464100    0.0000000000
   0.0016692100    0.0009178800    0.0000000000
  -0.0270063200   -0.0163467600   -0.0156957700
   0.0082319900   -0.0048287800   -0.0004488900
  -0.0059702300    0.0024650400    0.0008053500
   0.0035899600    0.0014692400    0.0003431900
  -0.0270063200   -0.0163467600    0.0156957700
   0.0082319900   -0.0048287800    0.0004488900
  -0.0059702300    0.0024650400   -0.0008053500
   0.0035899600    0.0014692400   -0.0003431900
   0.1254948000    0.0880965200    0.0000000000
  -0.0021697200    0.0008993100    0.0000000000
   0.0028778700    0.0008906600    0.0000000000
   0.0003332800    0.0010308600    0.0000000000
   0.0070470300    0.0047837700    0.0000000000
  -0.0035606100    0.0006829600    0.0000000000
   0.0029038600    0.0006680800    0.0000000000
   0.0000177400    0.0006028900    0.0000000000
  -0.0207867200   -0.0244622100    0.0000000000
  -0.0041821200    0.0004830600    0.0000000000
  -0.0001854500    0.0004696100    0.0000000000
  -0.0044328200   -0.0042232200    0.0000000000
  -0.0011191200   -0.0018180200    0.0000000000
  -0.0025006100   -0.0001043800    0.0000000000
   0.0008420200   -0.0001199900    0.0000000000
  -0.0045306700   -0.0047874000    0.0000000000
   0.0017449000    0.0024535100    0.0005782200
  -0.0044517100    0.0022548700   -0.0013177200
   0.0017481300   -0.0034960400    0.0037639800
  -0.0044514600    0.0035153900    0.0000605700
   0.0017449000    0.0024535100   -0.0005782200
  -0.0044517100    0.0022548700    0.0013177200
   0.0017481300   -0.0034960400   -0.0037639800
  -0.0044514600    0.0035153900   -0.0000605700
  -0.0074924100    0.0034640200   -0.0076775400
  -0.0075940400   -0.0024900700    0.0089677200
   0.0019574600   -0.0035142700   -0.0016135500
   0.0019723400   -0.0022622500    0.0000460000
  -0.0074924100    0.0034640200    0.0076775400
  -0.0075940400   -0.0024900700   -0.0089677200
   0.0019574600   -0.0035142700    0.0016135500
   0.0019723400   -0.0022622500   -0.0000460000

17   
  0.0000000000000000   0.0000000000000000   0.0100000000000000
   0.0001032200    0.0001032200    0.0146856400
   0.0000024000    0.0000083900    0.0063357800
   0.0000083900    0.0000024000    0.0063357800
   0.0000098000    0.0000098000   -0.0007248400
   0.0000360400    0.0000360400   -0.0086239500
  -0.0000089800    0.0000057000   -0.0070043800
   0.0000057000   -0.0000089800   -0.0070043800
  -0.0000080300   -0.0000080300    0.0000611900
   0.0193869500    0.0193869500    0.0421126500
   0.0020915800   -0.0022540200    0.0001162300
  -0.0022540200    0.0020915800    0.0001162300
   0.0002147700    0.0002147700   -0.0000292400
  -0.0179017000   -0.0179017000    0.0400296100
  -0.0021130800    0.0022692600    0.0001162300
   0.0022692600   -0.0021130800    0.0001162300
  -0.0002214700   -0.0002214700   -0.0000207800
   0.0001036700    0.0001036700   -0.1403054800
   0.0016844100    0.0016810800   -0.0015320600
   0.0016810800    0.0016844100   -0.0015320600
   0.0016782800    0.0016782800   -0.0005485600
   0.0016558200    0.0016558200    0.0226475000
   0.0016864600    0.0016793000    0.0021639800
   0.0016793000    0.0016864600    0.0021639800
   0.0016800800    0.0016800800    0.0004579600
  -0.0016941100   -0.0016941100   -0.0060465200
  -0.0016755000   -0.0016853500   -0.0013565700
  -0.0016853500   -0.0016755000   -0.0013565700
  -0.0016746200   -0.0016746200   -0.0012395200
  -0.0016872300   -0.0016872300    0.0023242900
  -0.0016815100   -0.0016834200    0.0013548900
  -0.0016834200   -0.0016815100    0.0013548900
  -0.0016705300   -0.0016705300    0.0016101000
  -0.0054532200    0.0106259900    0.0042794200
  -0.0017411500    0.0017226400   -0.0001301700
  -0.0022923200   -0.0060700000    0.0042549400
  -0.0003516400    0.0000527600   -0.0001283700
   0.0020408000   -0.0071563300    0.0042844000
  -0.0016173700    0.0016352200   -0.0001279700
  -0.0010900200    0.0093777000    0.0043081800
  -0.0029960200    0.0032953000   -0.0001295800
   0.0106259900   -0.0054532200    0.0042794200
  -0.0060700000   -0.0022923200    0.0042549400
   0.0017226400   -0.0017411500   -0.0001301700
   0.0000527600   -0.0003516400   -0.0001283700
  -0.0071563300    0.0020408000    0.0042844000
   0.0093777000   -0.0010900200    0.0043081800
   0.0016352200   -0.0016173700   -0.0001279700
   0.0032953000   -0.0029960200   -0.0001295800
